 &FCI NORB=   7,NELEC=12,MS2=0,
  ORBSYM=1,1,1,1,1,1,1,
  ISYM=1,
 &END
 13.15765073652017    1    1    1    1
 -0.001481870310513848    2    1    1    1
 0.03207737557367428    2    1    2    1
 13.08852856947387    2    2    1    1
 -0.001534368741235042    2    2    2    1
 13.14914382904366    2    2    2    2
 0.0001969606898557549    3    1    1    1
 -0.0007073235785713099    3    1    2    1
 -0.0005466296361218157    3    1    2    2
 0.02095130985689923    3    1    3    1
 0.0009366232323123595    3    2    1    1
 -0.0001981236676945458    3    2    2    1
 -0.0001343226419048812    3    2    2    2
 0.0001515770942766622    3    2    3    1
 0.02462056380999914    3    2    3    2
 13.1158223899088    3    3    1    1
 -0.001292903099255171    3    3    2    1
 13.10680827666804    3    3    2    2
 0.0003497070797924191    3    3    3    1
 9.3157018662321e-05    3    3    3    2
 13.16949090566557    3    3    3    3
 15.36835892389033    4    4    4    4
 0.0001301031294464145    5    4    4    4
 0.02926338229273516    5    4    5    4
 15.31394965079667    5    5    4    4
 0.0001705830984044181    5    5    5    4
 15.37238834927009    5    5    5    5
 15.3489386550716    6    6    6    6
 -0.007057566734736559    7    6    6    6
 0.01277930741555615    7    6    7    6
 15.32321543754    7    7    6    6
 0.000508288243783293    7    7    7    6
 15.31690775824201    7    7    7    7
 -56.64422967610176    1    1  0  0
 0.01122413922198756    2    1  0  0
 -56.35805474249153    2    2  0  0
 0.0006229074114853176    3    1  0  0
 0.0007133966298695422    3    2  0  0
 -55.89541729163919    3    3  0  0
 -63.59718090934498    4    4  0  0
 -0.000257551489667399    5    4  0  0
 -63.59294641391533    5    5  0  0
 -58.40350915608251    6    6  0  0
 0.004781097646451278    7    6  0  0
 -56.0279099025396    7    7  0  0
 -2881.779326309789  0  0  0  0
