 &FCI NORB=  15,NELEC=22,MS2=0,
  ORBSYM=1,1,1,1,1,1,1,1,1,1,1,1,1,1,1,
  ISYM=1,
 &END
 10.39240001434629    1    1    1    1
 9.658111386524709    2    2    2    2
 10.89106890075123    3    3    3    3
 14.97690804930724    4    4    4    4
 -0.002476180332198843    5    1    1    1
 0.0280200922997929    5    1    5    1
 10.36207087214772    5    5    1    1
 -0.003433245622678778    5    5    5    1
 10.46181519089139    5    5    5    5
 -0.005655250059235934    6    3    3    3
 0.03632236207542387    6    3    6    3
 10.8191124127172    6    6    3    3
 -0.004192649008518182    6    6    6    3
 10.92076370462184    6    6    6    6
 12.836655032922    7    7    7    7
 11.5138461399923    8    8    8    8
 9.775395156791587    9    9    9    9
 0.02116544248712066   10    4    4    4
 0.1042079886111716   10    4   10    4
 14.9612337744387   10   10    4    4
 -0.006266792104478697   10   10   10    4
 15.00462826522836   10   10   10   10
 13.10727150175606   11   11   11   11
 -8.867696362191619e-05   12    7    7    7
 0.004126146254611861   12    7   12    7
 12.29961059729278   12   12    7    7
 -0.0002801620715709974   12   12   12    7
 12.31310188733779   12   12   12   12
 0.006120023281209953   13    8    8    8
 0.03143461358381777   13    8   13    8
 11.48785355880363   13   13    8    8
 0.007714009662270615   13   13   13    8
 11.6049235538293   13   13   13   13
 0.03896197519580018   14    9    9    9
 0.01279847762938356   14    9   14    9
 9.41361629877599   14   14    9    9
 0.00540919271790889   14   14   14    9
 9.429327231077854   14   14   14   14
 0.01777353243849664   15   11   11   11
 0.03872313942105098   15   11   15   11
 13.054806473018   15   15   11   11
 0.02054689292716095   15   15   15   11
 13.19882316209755   15   15   15   15
 -43.74973022171179    1    1  0  0
 -5.296569601594348    2    2  0  0
 -45.98121460876753    3    3  0  0
 -31.12761061446979    4    4  0  0
 -0.01514899060788471    5    1  0  0
 -43.55918907162411    5    5  0  0
 0.01530668225088389    6    3  0  0
 -46.14468849245368    6    6  0  0
 -52.96240637876004    7    7  0  0
 -47.6275785096032    8    8  0  0
 -7.349789629036728    9    9  0  0
 -0.009781423727405874   10    4  0  0
 -32.81249297980621   10   10  0  0
 -53.76961108314392   11   11  0  0
 -0.01460266570500094   12    7  0  0
 -48.74140150521898   12   12  0  0
 0.02526761288027888   13    8  0  0
 -47.33606193257263   13   13  0  0
 -0.3249254132895393   14    9  0  0
 -2.454976641566375   14   14  0  0
 -0.06011550869062373   15   11  0  0
 -54.06436234089648   15   15  0  0
 -1747.734433463279  0  0  0  0
