 &FCI NORB=  14,NELEC=24,MS2=0,
  ORBSYM=1,1,1,1,1,1,1,1,1,1,1,1,1,1,
  ISYM=1,
 &END
 12.1021126918564    1    1    1    1
 13.05478827206163    2    2    2    2
 0.02989867131478702    3    2    2    2
 0.1880751077344182    3    2    3    2
 13.03610929167533    3    3    2    2
 -0.04238323822683822    3    3    3    2
 13.06126387012418    3    3    3    3
 -0.006691957583815889    4    1    1    1
 0.06016756494770468    4    1    4    1
 12.10217303970652    4    4    1    1
 0.008159504137565238    4    4    4    1
 12.11277253190385    4    4    4    4
 9.944824883869451    5    5    5    5
 15.1368238054125    6    6    6    6
 14.00817422319772    7    7    7    7
 -0.07956458960238917    8    6    6    6
 0.0499773610043769    8    6    8    6
 14.95094017406264    8    8    6    6
 -0.004479808689252938    8    8    8    6
 14.96821989988331    8    8    8    8
 10.03895668699046    9    9    9    9
 0.004243510675474341   10    5    5    5
 0.008794527399577376   10    5   10    5
 9.54221843095031   10   10    5    5
 -0.002646996915874685   10   10   10    5
 9.755809206024697   10   10   10   10
 -0.07039170248879247   11    9    9    9
 0.03978301052510307   11    9   11    9
 9.833300523056597   11   11    9    9
 -0.004914096619017707   11   11   11    9
 9.848433950987033   11   11   11   11
 15.58189331392492   12   12   12   12
 0.00898757900313555   13    7    7    7
 0.08168294181151078   13    7   13    7
 14.00515197602595   13   13    7    7
 -0.01026547981098999   13   13   13    7
 14.02327233925826   13   13   13   13
 -0.07034649868665088   14   12   12   12
 0.02891840386752951   14   12   14   12
 15.23897284159436   14   14   12   12
 0.03224098008111652   14   14   14   12
 15.41985524890706   14   14   14   14
 0.8069421733511888    1    1  0  0
 -58.22683146059672    2    2  0  0
 -0.0237591643385535    3    2  0  0
 -58.2138935427552    3    3  0  0
 0.03448665801644522    4    1  0  0
 0.6725965197997246    4    4  0  0
 -47.29058188609977    5    5  0  0
 -64.89287623945394    6    6  0  0
 -55.97175852284283    7    7  0  0
 -0.0584577494649121    8    6  0  0
 -65.01337168863738    8    8  0  0
 -46.99847677337917    9    9  0  0
 0.02954500036104343   10    5  0  0
 -47.39644646586561   10   10  0  0
 -0.04184319683059746   11    9  0  0
 -47.0693894959084   11   11  0  0
 -67.04260048428381   12   12  0  0
 -0.0642206168676689   13    7  0  0
 -56.12910821699776   13   13  0  0
 -0.006353867586931719   14   12  0  0
 -66.95351771075173   14   14  0  0
 -4751.083687553801  0  0  0  0
