 &FCI NORB=  14,NELEC=22,MS2=0,
  ORBSYM=1,1,1,1,1,1,1,1,1,1,1,1,1,1,
  ISYM=1,
 &END
 9.641409762415885    1    1    1    1
 0.009143017488390807    2    1    1    1
 0.01961615697295257    2    1    2    1
 9.655172977809755    2    2    1    1
 0.03140620152448824    2    2    2    1
 9.857651085191122    2    2    2    2
 10.62056550069061    3    3    3    3
 12.6465751995035    4    4    4    4
 9.58033072531973    5    5    5    5
 11.12160921719595    6    6    6    6
 -0.1250795775596524    7    5    5    5
 0.07686840947698155    7    5    7    5
 9.179623642151663    7    7    5    5
 0.1258806137710159    7    7    7    5
 9.599015430604616    7    7    7    7
 12.14988921990283    8    8    8    8
 0.09254589165493807    9    3    3    3
 0.09154903711295909    9    3    9    3
 10.4569468257433    9    9    3    3
 -0.06334089727439275    9    9    9    3
 10.59462582087047    9    9    9    9
 -0.004332783654709406   10    6    6    6
 0.02993313527286675   10    6   10    6
 11.09882625441845   10   10    6    6
 -0.006151329563679792   10   10   10    6
 11.18793511421959   10   10   10   10
 0.0007974035633235659   11    8    8    8
 0.04541765780428374   11    8   11    8
 12.15425876529673   11   11    8    8
 0.01523936263953007   11   11   11    8
 12.33976328517195   11   11   11   11
 14.26561706796854   12   12   12   12
 -0.0104480716080964   13   12   12   12
 0.07813040466164121   13   12   13   12
 14.25890659733666   13   13   12   12
 0.02151937228003071   13   13   13   12
 14.4130630377342   13   13   13   13
 0.003962516142491927   14    4    4    4
 0.1386738747714885   14    4   14    4
 12.6434466365472   14   14    4    4
 0.1208952190583735   14   14   14    4
 12.78443857794882   14   14   14   14
 -40.28102681044727    1    1  0  0
 -0.06381769819939903    2    1  0  0
 -40.68081374694223    2    2  0  0
 -43.48940784397172    3    3  0  0
 -50.94478548637288    4    4  0  0
 -41.82351784126193    5    5  0  0
 -44.99265884006977    6    6  0  0
 0.1339985767848181    7    5  0  0
 -41.46104485365617    7    7  0  0
 -1.163859788600939    8    8  0  0
 0.1899707477890307    9    3  0  0
 -44.08294498762503    9    9  0  0
 -0.07365469076463016   10    6  0  0
 -44.96887512044825   10   10  0  0
 -0.2905187368605382   11    8  0  0
 -2.252214052837992   11   11  0  0
 -28.14452782892181   12   12  0  0
 -0.7506345273176767   13   12  0  0
 -28.12712112920347   13   13  0  0
 0.2170199494888995   14    4  0  0
 -51.53308507359965   14   14  0  0
 -275.1701482834461  0  0  0  0
