 &FCI NORB=   7,NELEC=10,MS2=0,
  ORBSYM=1,1,1,1,1,1,1,
  ISYM=1,
 &END
 6.807738721340378    1    1    1    1
 -0.7844836376408731    2    1    1    1
 0.1168310760410189    2    1    2    1
 -0.05985374732765081    2    2    1    1
 0.02454317424245935    2    2    2    1
 0.02326567833220922    3    1    3    1
 0.03629260800174266    3    2    3    1
 0.2789331412053958    3    2    3    2
 -0.2395673557090001    3    3    1    1
 0.04143974931322025    3    3    2    1
 0.05342296901528099    3    3    2    2
 0.2437004660043129    3    3    3    3
 -0.3487604036590914    4    1    1    1
 0.04850067673637748    4    1    2    1
 0.007710747722847692    4    1    2    2
 0.02634300206280238    4    1    3    3
 0.0540674662263407    4    1    4    1
 0.1269991110798009    4    2    1    1
 -0.01901816343150843    4    2    2    1
 -0.160460043950657    4    2    2    2
 -0.174253943698622    4    2    3    3
 0.03283516698030534    4    2    4    1
 0.2493006804346824    4    2    4    2
 0.008237748937537591    4    3    3    1
 -0.03691358437340232    4    3    3    2
 0.1030078867300188    4    3    4    3
 -0.06871100376214301    4    4    1    1
 0.02500350762626685    4    4    2    1
 -0.05487308614475217    4    4    2    2
 0.02643811332245294    4    4    3    3
 0.05885060638720678    4    4    4    1
 0.03065160396387732    4    4    4    2
 0.1825146578429719    4    4    4    4
 0.05202039617821662    5    1    5    1
 0.06495418813463012    5    2    5    1
 0.289559170856206    5    2    5    2
 0.05783373691353534    5    3    5    3
 0.02831925440487804    5    4    5    1
 0.1002379652557428    5    4    5    2
 0.1103854489889647    5    4    5    4
 0.1212846294121572    5    5    1    1
 0.02723403057325487    5    5    2    1
 -0.001976708912803105    5    5    2    2
 -0.01739849106512859    5    5    3    3
 0.02880276334880053    5    5    4    1
 -0.009214704381007806    5    5    4    2
 0.2247086016393149    5    5    5    5
 -0.3919260438640954    6    1    1    1
 0.06572510300439396    6    1    2    1
 0.03959986205058209    6    1    2    2
 0.03979941702959787    6    1    3    3
 -0.0009804518971276365    6    1    4    1
 -0.0425682787170379    6    1    4    2
 -0.0003365388254146853    6    1    4    4
 0.02660368675312577    6    1    5    5
 0.06059640921697988    6    1    6    1
 0.2936647786459823    6    2    1    1
 -0.01150020798013839    6    2    2    1
 -0.01007031233222516    6    2    2    2
 -0.1342743627130248    6    2    3    3
 -0.03797091356501704    6    2    4    1
 -0.04232692740750304    6    2    4    2
 -0.1532717329886104    6    2    4    4
 0.01007031233222516    6    2    5    5
 0.02026748857904106    6    2    6    1
 0.2052175549787036    6    2    6    2
 0.007501232749333748    6    3    3    1
 -0.05592411856148868    6    3    3    2
 0.05610225312016228    6    3    4    3
 0.1241014561830681    6    3    6    3
 -0.2259123913128295    6    4    1    1
 0.006436228580308712    6    4    2    1
 0.06012635206185717    6    4    2    2
 0.1675711854199236    6    4    3    3
 -0.0006730776508293771    6    4    4    1
 -0.1067205355169092    6    4    4    2
 0.003924938314563142    6    4    4    4
 0.00622248367762095    6    4    6    1
 -0.1136371616101889    6    4    6    2
 0.1747948376854817    6    4    6    4
 0.028326648126104    6    5    5    1
 0.1084940238600918    6    5    5    2
 -0.001778379858199664    6    5    5    4
 0.07442729458848563    6    5    6    5
 0.03605126322008026    6    6    2    1
 0.2052175549787036    6    6    2    2
 0.3268452055239692    6    6    3    3
 -0.0004835089439224893    6    6    4    1
 -0.2674438363259938    6    6    4    2
 0.156737963071039    6    6    4    4
 0.1180585700112289    6    6    5    5
 0.05752309188739628    6    6    6    1
 -0.08765797210188189    6    6    6    2
 0.1674765733568316    6    6    6    4
 0.5884199617137804    6    6    6    6
 0.0297528859378193    7    1    3    1
 0.04367565156700456    7    1    3    2
 0.01079171106932798    7    1    4    3
 0.00846104407334501    7    1    6    3
 0.03813289167941354    7    1    7    1
 0.02794619974099184    7    2    3    1
 0.08206291591712483    7    2    3    2
 0.07574960482536267    7    2    4    3
 0.07008537475238466    7    2    6    3
 0.03405750325796156    7    2    7    1
 0.1241383818402867    7    2    7    2
 0.3382540990049817    7    3    1    1
 -0.01478103684948087    7    3    2    1
 -0.1077102086154367    7    3    2    2
 -0.2004334768600017    7    3    3    3
 0.001424638994172151    7    3    4    1
 0.1721149099213825    7    3    4    2
 -0.09254526642812549    7    3    4    4
 -0.01406452374242195    7    3    6    1
 0.1451900598050728    7    3    6    2
 -0.1870724376311099    7    3    6    4
 -0.2978734609385157    7    3    6    6
 0.3184783186919576    7    3    7    3
 0.02002298579648588    7    4    3    1
 0.1609641934438314    7    4    3    2
 -0.007972617079572227    7    4    4    3
 -0.08935275348492289    7    4    6    3
 0.02529317356943016    7    4    7    1
 0.0278317605966183    7    4    7    2
 0.1492473019790991    7    4    7    4
 0.04695694209339876    7    5    5    3
 0.04635857306579414    7    5    7    5
 0.01639320884797781    7    6    3    1
 0.1778259946452671    7    6    3    2
 -0.1025934131194875    7    6    4    3
 -0.1074776778650179    7    6    6    3
 0.02000864399313328    7    6    7    1
 -0.0268293966946174    7    6    7    2
 0.1210763101541267    7    6    7    4
 0.2151365964620546    7    6    7    6
 -0.05717822552442353    7    7    1    1
 0.03405750325796156    7    7    2    1
 0.1189979003073094    7    7    2    2
 0.3191208086944564    7    7    3    3
 0.03054504570159665    7    7    4    1
 -0.1502890620049933    7    7    4    2
 0.1492473019790992    7    7    4    4
 0.06961994174077235    7    7    5    5
 0.03089433951813854    7    7    6    1
 -0.1691086615371048    7    7    6    2
 0.1874069963273669    7    7    6    4
 0.4425643964906929    7    7    6    6
 -0.2262324715761084    7    7    7    3
 0.4519199100116578    7    7    7    7
 -46.23941769719415    1    1  0  0
 0.5601510051665228    2    1  0  0
 -0.8226105125481187    2    2  0  0
 -0.1379013737560925    3    3  0  0
 0.09492090259250086    4    1  0  0
 0.5244723704837562    4    2  0  0
 0.1203051936351059    4    4  0  0
 -0.08664993171028401    5    5  0  0
 0.149043738986471    6    1  0  0
 -0.03669108761761888    6    2  0  0
 0.07198354741342856    6    4  0  0
 -0.1412342897559586    6    6  0  0
 -0.007254113824447767    7    3  0  0
 0.3997395428966574    7    7  0  0
 -80.51647900379457  0  0  0  0
