 &FCI NORB=   7,NELEC=10,MS2=0,
  ORBSYM=1,1,1,1,1,1,1,
  ISYM=1,
 &END
 -4.555224150437628    1    1    1    1
 -0.6903121008313424    2    1    1    1
 0.1168310760410189    2    1    2    1
 -6.676786937211395    2    2    1    1
 0.1187147110519901    2    2    2    1
 -1.870903507989485    2    2    2    2
 0.02326567833220922    3    1    3    1
 0.03629260800174265    3    2    3    1
 0.2789331412053958    3    2    3    2
 -6.783100199900948    3    3    1    1
 0.135611286122751    3    3    2    1
 -1.744080193282407    3    3    2    2
 -1.480402350601577    3    3    3    3
 -0.3225163676897633    4    1    1    1
 0.04850067673637747    4    1    2    1
 0.03395478369217585    4    1    2    2
 0.05258703803213052    4    1    3    3
 0.0540674662263407    4    1    4    1
 0.1843623451769419    4    2    1    1
 -0.01901816343150843    4    2    2    1
 -0.1030968098535161    4    2    2    2
 -0.1168907096014811    4    2    3    3
 0.03283516698030535    4    2    4    1
 0.2493006804346824    4    2    4    2
 0.008237748937537591    4    3    3    1
 -0.03691358437340232    4    3    3    2
 0.1030078867300188    4    3    4    3
 -6.578652574571149    4    4    1    1
 0.1191750444357976    4    4    2    1
 -1.818784975059497    4    4    2    2
 -1.664073429900494    4    4    3    3
 0.08509464235653491    4    4    4    1
 0.08801483806101833    4    4    4    2
 -1.474405611997032    4    4    4    4
 0.05202039617821663    5    1    5    1
 0.06495418813463012    5    2    5    1
 0.2895591708562059    5    2    5    2
 0.05783373691353533    5    3    5    3
 0.02831925440487804    5    4    5    1
 0.1002379652557428    5    4    5    2
 0.1103854489889647    5    4    5    4
 -6.396365163501859    5    5    1    1
 0.1214055673827856    5    5    2    1
 -1.773596819932558    5    5    2    2
 -1.715618256393086    5    5    3    3
 0.05504679931812868    5    5    4    1
 0.04814852971613319    5    5    4    2
 -1.664628491945014    5    5    4    4
 -1.44762811241071    5    5    5    5
 -0.3569642797173531    6    1    1    1
 0.06572510300439395    6    1    2    1
 0.07456162619732426    6    1    2    2
 0.07476118117634005    6    1    3    3
 -0.0009804518971276365    6    1    4    1
 -0.04256827871703791    6    1    4    2
 0.03462522532132747    6    1    4    4
 0.06156545089986794    6    1    5    5
 0.06059640921697988    6    1    6    1
 0.2982406185163973    6    2    1    1
 -0.01150020798013839    6    2    2    1
 -0.005494472461810063    6    2    2    2
 -0.1296985228426097    6    2    3    3
 -0.03797091356501704    6    2    4    1
 -0.04232692740750304    6    2    4    2
 -0.1486958931181953    6    2    4    4
 0.01464615220264026    6    2    5    5
 0.02026748857904107    6    2    6    1
 0.2052175549787035    6    2    6    2
 0.007501232749333749    6    3    3    1
 -0.05592411856148868    6    3    3    2
 0.05610225312016229    6    3    4    3
 0.1241014561830681    6    3    6    3
 -0.2407349807817543    6    4    1    1
 0.006436228580308712    6    4    2    1
 0.04530376259293228    6    4    2    2
 0.1527485959509987    6    4    3    3
 -0.0006730776508293769    6    4    4    1
 -0.1067205355169092    6    4    4    2
 -0.01089765115436175    6    4    4    4
 -0.0148225894689249    6    4    5    5
 0.006222483677620951    6    4    6    1
 -0.1136371616101889    6    4    6    2
 0.1747948376854817    6    4    6    4
 0.02832664812610401    6    5    5    1
 0.1084940238600918    6    5    5    2
 -0.001778379858199664    6    5    5    4
 0.07442729458848561    6    5    6    5
 -6.56480550953251    6    6    1    1
 0.130222800029611    6    6    2    1
 -1.613558272659547    6    6    2    2
 -1.418530276422484    6    6    3    3
 0.02576052702540567    6    6    4    1
 -0.2100806022288528    6    6    4    2
 -1.555046245492471    6    6    4    4
 -1.601433860657291    6    6    5    5
 0.09248485603413843    6    6    6    1
 -0.08308213223146679    6    6    6    2
 0.1526539838879067    6    6    6    4
 -1.178228185573235    6    6    6    6
 0.0297528859378193    7    1    3    1
 0.04367565156700455    7    1    3    2
 0.01079171106932798    7    1    4    3
 0.00846104407334501    7    1    6    3
 0.03813289167941353    7    1    7    1
 0.02794619974099183    7    2    3    1
 0.08206291591712485    7    2    3    2
 0.07574960482536267    7    2    4    3
 0.07008537475238466    7    2    6    3
 0.03405750325796156    7    2    7    1
 0.1241383818402867    7    2    7    2
 0.3649449095525836    7    3    1    1
 -0.01478103684948087    7    3    2    1
 -0.08101939806783476    7    3    2    2
 -0.1737426663123998    7    3    3    3
 0.001424638994172151    7    3    4    1
 0.1721149099213825    7    3    4    2
 -0.06585445588052358    7    3    4    4
 0.02669081054760192    7    3    5    5
 -0.01406452374242195    7    3    6    1
 0.1451900598050728    7    3    6    2
 -0.1870724376311099    7    3    6    4
 -0.2711826503909138    7    3    6    6
 0.3184783186919577    7    3    7    3
 0.02002298579648588    7    4    3    1
 0.1609641934438314    7    4    3    2
 -0.007972617079572227    7    4    4    3
 -0.08935275348492287    7    4    6    3
 0.02529317356943015    7    4    7    1
 0.02783176059661831    7    4    7    2
 0.1492473019790991    7    4    7    4
 0.04695694209339876    7    5    5    3
 0.04635857306579414    7    5    7    5
 0.01639320884797781    7    6    3    1
 0.1778259946452671    7    6    3    2
 -0.1025934131194875    7    6    4    3
 -0.1074776778650179    7    6    6    3
 0.02000864399313327    7    6    7    1
 -0.0268293966946174    7    6    7    2
 0.1210763101541267    7    6    7    4
 0.2151365964620546    7    6    7    6
 -6.56337083644014    7    7    1    1
 0.1282290400674923    7    7    2    1
 -1.641165028714147    7    7    2    2
 -1.367641774635203    7    7    3    3
 0.0567890816709248    7    7    4    1
 -0.09292582790785228    7    7    4    2
 -1.503924007967617    7    7    4    4
 -1.591259590310954    7    7    5    5
 0.06585610366488071    7    7    6    1
 -0.1645328216666897    7    7    6    2
 0.172584406858442    7    7    6    4
 -1.265470852179529    7    7    6    6
 -0.1995416610285065    7    7    7    3
 -1.19750244004177    7    7    7    7
 -2.105155116381724    1    1  0  0
 -0.1915952174128359    2    1  0  0
 -0.3034617513165958    2    2  0  0
 -0.2873910662726962    3    3  0  0
 -0.09418361408763502    4    1  0  0
 0.005468842406324823    4    2  0  0
 -0.3168009949762225    4    4  0  0
 -0.4085217459097536    5    5  0  0
 -0.1104080922228057    6    1  0  0
 -0.05191576430090319    6    2  0  0
 0.1369245684225018    6    4  0  0
 -0.1619770182292308    6    6  0  0
 -0.1649809391685767    7    3  0  0
 -0.1530051881615822    7    7  0  0
 8.841020169010916  0  0  0  0
