 &FCI NORB=   7,NELEC=10,MS2=0,
  ORBSYM=1,1,1,1,1,1,1,
  ISYM=1,
 &END
 -2.277612075218814    1    1    1    1
 -0.3451560504156712    2    1    1    1
 0.05841553802050946    2    1    2    1
 -3.338393468605698    2    2    1    1
 0.05935735552599505    2    2    2    1
 -0.9354517539947425    2    2    2    2
 0.01163283916610461    3    1    3    1
 0.01814630400087133    3    2    3    1
 0.1394665706026979    3    2    3    2
 -3.391550099950474    3    3    1    1
 0.0678056430613755    3    3    2    1
 -0.8720400966412033    3    3    2    2
 -0.7402011753007887    3    3    3    3
 -0.1612581838448816    4    1    1    1
 0.02425033836818874    4    1    2    1
 0.01697739184608792    4    1    2    2
 0.02629351901606526    4    1    3    3
 0.02703373311317035    4    1    4    1
 0.09218117258847097    4    2    1    1
 -0.009509081715754214    4    2    2    1
 -0.05154840492675803    4    2    2    2
 -0.05844535480074053    4    2    3    3
 0.01641758349015267    4    2    4    1
 0.1246503402173412    4    2    4    2
 0.004118874468768795    4    3    3    1
 -0.01845679218670116    4    3    3    2
 0.05150394336500939    4    3    4    3
 -3.289326287285574    4    4    1    1
 0.0595875222178988    4    4    2    1
 -0.9093924875297483    4    4    2    2
 -0.8320367149502471    4    4    3    3
 0.04254732117826746    4    4    4    1
 0.04400741903050916    4    4    4    2
 -0.7372028059985161    4    4    4    4
 0.02601019808910831    5    1    5    1
 0.03247709406731506    5    2    5    1
 0.144779585428103    5    2    5    2
 0.02891686845676767    5    3    5    3
 0.01415962720243902    5    4    5    1
 0.05011898262787139    5    4    5    2
 0.05519272449448234    5    4    5    4
 -3.198182581750929    5    5    1    1
 0.06070278369139281    5    5    2    1
 -0.8867984099662789    5    5    2    2
 -0.857809128196543    5    5    3    3
 0.02752339965906434    5    5    4    1
 0.02407426485806659    5    5    4    2
 -0.8323142459725071    5    5    4    4
 -0.7238140562053548    5    5    5    5
 -0.1784821398586766    6    1    1    1
 0.03286255150219698    6    1    2    1
 0.03728081309866213    6    1    2    2
 0.03738059058817002    6    1    3    3
 -0.0004902259485638183    6    1    4    1
 -0.02128413935851895    6    1    4    2
 0.01731261266066374    6    1    4    4
 0.03078272544993397    6    1    5    5
 0.03029820460848994    6    1    6    1
 0.1491203092581987    6    2    1    1
 -0.005750103990069197    6    2    2    1
 -0.002747236230905031    6    2    2    2
 -0.06484926142130486    6    2    3    3
 -0.01898545678250852    6    2    4    1
 -0.02116346370375152    6    2    4    2
 -0.07434794655909763    6    2    4    4
 0.007323076101320131    6    2    5    5
 0.01013374428952053    6    2    6    1
 0.1026087774893518    6    2    6    2
 0.003750616374666874    6    3    3    1
 -0.02796205928074434    6    3    3    2
 0.02805112656008114    6    3    4    3
 0.06205072809153404    6    3    6    3
 -0.1203674903908772    6    4    1    1
 0.003218114290154356    6    4    2    1
 0.02265188129646614    6    4    2    2
 0.07637429797549937    6    4    3    3
 -0.0003365388254146885    6    4    4    1
 -0.05336026775845459    6    4    4    2
 -0.005448825577180877    6    4    4    4
 -0.007411294734462448    6    4    5    5
 0.003111241838810475    6    4    6    1
 -0.05681858080509443    6    4    6    2
 0.08739741884274083    6    4    6    4
 0.014163324063052    6    5    5    1
 0.05424701193004589    6    5    5    2
 -0.0008891899290998322    6    5    5    4
 0.03721364729424281    6    5    6    5
 -3.282402754766255    6    6    1    1
 0.0651114000148055    6    6    2    1
 -0.8067791363297733    6    6    2    2
 -0.7092651382112418    6    6    3    3
 0.01288026351270283    6    6    4    1
 -0.1050403011144264    6    6    4    2
 -0.7775231227462354    6    6    4    4
 -0.8007169303286455    6    6    5    5
 0.04624242801706922    6    6    6    1
 -0.0415410661157334    6    6    6    2
 0.07632699194395333    6    6    6    4
 -0.5891140927866175    6    6    6    6
 0.01487644296890965    7    1    3    1
 0.02183782578350228    7    1    3    2
 0.005395855534663992    7    1    4    3
 0.004230522036672505    7    1    6    3
 0.01906644583970677    7    1    7    1
 0.01397309987049592    7    2    3    1
 0.04103145795856242    7    2    3    2
 0.03787480241268133    7    2    4    3
 0.03504268737619233    7    2    6    3
 0.01702875162898078    7    2    7    1
 0.06206919092014335    7    2    7    2
 0.1824724547762918    7    3    1    1
 -0.007390518424740433    7    3    2    1
 -0.04050969903391738    7    3    2    2
 -0.08687133315619988    7    3    3    3
 0.0007123194970860755    7    3    4    1
 0.08605745496069123    7    3    4    2
 -0.03292722794026179    7    3    4    4
 0.01334540527380096    7    3    5    5
 -0.007032261871210976    7    3    6    1
 0.07259502990253641    7    3    6    2
 -0.09353621881555496    7    3    6    4
 -0.1355913251954569    7    3    6    6
 0.1592391593459788    7    3    7    3
 0.01001149289824294    7    4    3    1
 0.08048209672191572    7    4    3    2
 -0.003986308539786113    7    4    4    3
 -0.04467637674246144    7    4    6    3
 0.01264658678471508    7    4    7    1
 0.01391588029830915    7    4    7    2
 0.07462365098954957    7    4    7    4
 0.02347847104669938    7    5    5    3
 0.02317928653289707    7    5    7    5
 0.008196604423988906    7    6    3    1
 0.08891299732263357    7    6    3    2
 -0.05129670655974377    7    6    4    3
 -0.05373883893250895    7    6    6    3
 0.01000432199656664    7    6    7    1
 -0.0134146983473087    7    6    7    2
 0.06053815507706333    7    6    7    4
 0.1075682982310273    7    6    7    6
 -3.28168541822007    7    7    1    1
 0.06411452003374615    7    7    2    1
 -0.8205825143570735    7    7    2    2
 -0.6838208873176014    7    7    3    3
 0.0283945408354624    7    7    4    1
 -0.04646291395392614    7    7    4    2
 -0.7519620039838084    7    7    4    4
 -0.7956297951554769    7    7    5    5
 0.03292805183244035    7    7    6    1
 -0.08226641083334484    7    7    6    2
 0.086292203429221    7    7    6    4
 -0.6327354260897644    7    7    6    6
 -0.09977083051425323    7    7    7    3
 -0.5987512200208851    7    7    7    7
 -1.052577558190862    1    1  0  0
 -0.09579760870641793    2    1  0  0
 -0.1517308756582979    2    2  0  0
 -0.1436955331363481    3    3  0  0
 -0.04709180704381751    4    1  0  0
 0.002734421203162411    4    2  0  0
 -0.1584004974881112    4    4  0  0
 -0.2042608729548768    5    5  0  0
 -0.05520404611140286    6    1  0  0
 -0.0259578821504516    6    2  0  0
 0.06846228421125088    6    4  0  0
 -0.08098850911461541    6    6  0  0
 -0.08249046958428835    7    3  0  0
 -0.0765025940807911    7    7  0  0
 8.841020169010916  0  0  0  0
