 &FCI NORB=   7,NELEC=10,MS2=0,
  ORBSYM=1,1,1,1,1,1,1,
  ISYM=1,
 &END
 6.796405347343725    1    1    1    1
 -0.7844836376408731    2    1    1    1
 0.1168310760410189    2    1    2    1
 -0.07118712132430094    2    2    1    1
 0.02454317424245935    2    2    2    1
 -0.01133337399665102    2    2    2    2
 0.02326567833220922    3    1    3    1
 0.03629260800174265    3    2    3    1
 0.2789331412053958    3    2    3    2
 -0.257779093402374    3    3    1    1
 0.04143974931322025    3    3    2    1
 0.03521123132190795    3    3    2    2
 0.218610364614219    3    3    3    3
 -0.3487604036590914    4    1    1    1
 0.04850067673637747    4    1    2    1
 0.007710747722847695    4    1    2    2
 0.02634300206280237    4    1    3    3
 0.0540674662263407    4    1    4    1
 0.1265433742126071    4    2    1    1
 -0.01901816343150843    4    2    2    1
 -0.1609157808178509    4    2    2    2
 -0.1747096805658158    4    2    3    3
 0.03283516698030535    4    2    4    1
 0.2493006804346824    4    2    4    2
 0.008237748937537591    4    3    3    1
 -0.03691358437340232    4    3    3    2
 0.1030078867300188    4    3    4    3
 -0.08202108667159891    4    4    1    1
 0.02500350762626685    4    4    2    1
 -0.06818316905420718    4    4    2    2
 0.006249666716277025    4    4    3    3
 0.05885060638720676    4    4    4    1
 0.03019586709668359    4    4    4    2
 0.167227866020714    4    4    4    4
 0.05202039617821663    5    1    5    1
 0.06495418813463012    5    2    5    1
 0.2895591708562059    5    2    5    2
 0.05783373691353533    5    3    5    3
 0.02831925440487804    5    4    5    1
 0.1002379652557428    5    4    5    2
 0.1103854489889647    5    4    5    4
 0.1232613383249586    5    5    1    1
 0.02723403057325485    5    5    2    1
 -0.02230014584904683    5    5    3    3
 0.02880276334880053    5    5    4    1
 -0.009670441248201544    5    5    4    2
 0.2399953934615722    5    5    5    5
 -0.3919260438640952    6    1    1    1
 0.06572510300439395    6    1    2    1
 0.03959986205058211    6    1    2    2
 0.0397994170295979    6    1    3    3
 -0.0009804518971276365    6    1    4    1
 -0.04256827871703791    6    1    4    2
 -0.0003365388254146853    6    1    4    4
 0.02660368675312579    6    1    5    5
 0.06059640921697988    6    1    6    1
 0.2936647786459822    6    2    1    1
 -0.01150020798013839    6    2    2    1
 -0.01007031233222516    6    2    2    2
 -0.1342743627130248    6    2    3    3
 -0.03797091356501704    6    2    4    1
 -0.04232692740750304    6    2    4    2
 -0.1532717329886104    6    2    4    4
 0.01007031233222516    6    2    5    5
 0.02026748857904107    6    2    6    1
 0.2052175549787035    6    2    6    2
 0.007501232749333749    6    3    3    1
 -0.05592411856148868    6    3    3    2
 0.05610225312016229    6    3    4    3
 0.1241014561830681    6    3    6    3
 -0.2259123913128294    6    4    1    1
 0.006436228580308712    6    4    2    1
 0.06012635206185718    6    4    2    2
 0.1675711854199236    6    4    3    3
 -0.0006730776508293769    6    4    4    1
 -0.1067205355169092    6    4    4    2
 0.003924938314563149    6    4    4    4
 0.006222483677620951    6    4    6    1
 -0.1136371616101889    6    4    6    2
 0.1747948376854817    6    4    6    4
 0.02832664812610401    6    5    5    1
 0.1084940238600918    6    5    5    2
 -0.001778379858199664    6    5    5    4
 0.07442729458848561    6    5    6    5
 0.03605126322008026    6    6    2    1
 0.2052175549787034    6    6    2    2
 0.3199668418272474    6    6    3    3
 -0.0004835089439224824    6    6    4    1
 -0.2678995731931875    6    6    4    2
 0.1547612541582355    6    6    4    4
 0.1313686529206834    6    6    5    5
 0.05752309188739628    6    6    6    1
 -0.08765797210188189    6    6    6    2
 0.1674765733568316    6    6    6    4
 0.5997533357104319    6    6    6    6
 0.0297528859378193    7    1    3    1
 0.04367565156700455    7    1    3    2
 0.01079171106932798    7    1    4    3
 0.00846104407334501    7    1    6    3
 0.03813289167941353    7    1    7    1
 0.02794619974099183    7    2    3    1
 0.08206291591712485    7    2    3    2
 0.07574960482536267    7    2    4    3
 0.07008537475238466    7    2    6    3
 0.03405750325796156    7    2    7    1
 0.1241383818402867    7    2    7    2
 0.3382540990049817    7    3    1    1
 -0.01478103684948087    7    3    2    1
 -0.1077102086154367    7    3    2    2
 -0.2004334768600017    7    3    3    3
 0.001424638994172151    7    3    4    1
 0.1721149099213825    7    3    4    2
 -0.09254526642812549    7    3    4    4
 -0.01406452374242195    7    3    6    1
 0.1451900598050728    7    3    6    2
 -0.1870724376311099    7    3    6    4
 -0.2978734609385157    7    3    6    6
 0.3184783186919577    7    3    7    3
 0.02002298579648588    7    4    3    1
 0.1609641934438314    7    4    3    2
 -0.007972617079572227    7    4    4    3
 -0.08935275348492287    7    4    6    3
 0.02529317356943015    7    4    7    1
 0.02783176059661831    7    4    7    2
 0.1492473019790991    7    4    7    4
 0.04695694209339876    7    5    5    3
 0.04635857306579414    7    5    7    5
 0.01639320884797781    7    6    3    1
 0.1778259946452671    7    6    3    2
 -0.1025934131194875    7    6    4    3
 -0.1074776778650179    7    6    6    3
 0.02000864399313327    7    6    7    1
 -0.0268293966946174    7    6    7    2
 0.1210763101541267    7    6    7    4
 0.2151365964620546    7    6    7    6
 -0.05203774399144656    7    7    1    1
 0.03405750325796156    7    7    2    1
 0.1241383818402868    7    7    2    2
 0.317382926530712    7    7    3    3
 0.03054504570159665    7    7    4    1
 -0.150744798872187    7    7    4    2
 0.1524110745992728    7    7    4    4
 0.08807050618320389    7    7    5    5
 0.03089433951813855    7    7    6    1
 -0.1691086615371048    7    7    6    2
 0.1874069963273669    7    7    6    4
 0.4590382520203213    7    7    6    6
 -0.2262324715761084    7    7    7    3
 0.4735342470742638    7    7    7    7
 -45.30976607207778    1    1  0  0
 0.6559486138729409    2    1  0  0
 -0.7938055699643116    2    2  0  0
 -0.05522650042374122    3    3  0  0
 0.1420127096363183    4    1  0  0
 0.5258395810853375    4    2  0  0
 0.1735701382639575    4    4  0  0
 -0.1251057380149849    5    5  0  0
 0.2042477850978737    6    1  0  0
 -0.0107332054671673    6    2  0  0
 0.003521263202177716    6    4  0  0
 -0.2851720796856936    6    6  0  0
 0.07523635575984061    7    3  0  0
 0.2050515041363039    7    7  0  0
 -69.93619767418946  0  0  0  0
