 &FCI NORB=  27,NELEC=44,MS2=0,
  ORBSYM=1,1,1,1,1,1,1,1,1,1,1,1,1,1,1,1,1,1,1,1,1,1,1,1,1,1,1,
  ISYM=1,
 &END
 0.6538946663083312    1    1    1    1
 0.000771221780040756    2    1    1    1
 0.01782922259644405    2    1    2    1
 0.5967449249147267    2    2    1    1
 0.0006985229754896461    2    2    2    1
 0.6136632703431911    2    2    2    2
 -0.0001753302226267191    3    1    1    1
 -0.001412556479131547    3    1    2    1
 -0.003302348455096972    3    1    2    2
 0.02934730837405395    3    1    3    1
 0.002126623624671982    3    2    1    1
 0.00129840036293549    3    2    2    1
 -0.0001710540795479608    3    2    2    2
 -0.0003229313265774359    3    2    3    1
 0.02848039998949676    3    2    3    2
 0.5781281829494711    3    3    1    1
 0.001335380199518987    3    3    2    1
 0.5562830379720861    3    3    2    2
 7.419481449523913e-05    3    3    3    1
 -0.001686301966631176    3    3    3    2
 0.6240740983921312    3    3    3    3
 -0.0006591013740057797    4    1    1    1
 -0.0001772647236645253    4    1    2    1
 -0.003359216506626331    4    1    2    2
 -0.0002847283640982107    4    1    3    1
 0.009640109165242742    4    1    3    2
 0.001757549463718208    4    1    3    3
 0.03139497498656241    4    1    4    1
 0.001923464453314546    4    2    1    1
 0.001495502498852212    4    2    2    1
 0.001610043624050916    4    2    2    2
 -0.00891282762395311    4    2    3    1
 -0.0007513584836469668    4    2    3    2
 0.01152194326647187    4    2    3    3
 -0.0001665332179406048    4    2    4    1
 0.0288851576521229    4    2    4    2
 0.0004219222459480375    4    3    1    1
 -0.001826453841864282    4    3    2    1
 0.0007984213804912951    4    3    2    2
 -0.001613087807671202    4    3    3    1
 -0.003398331824460682    4    3    3    2
 0.0004684196285112034    4    3    3    3
 0.003495383455037535    4    3    4    1
 0.0006675757010509139    4    3    4    2
 0.02482858732769299    4    3    4    3
 0.5690937044032972    4    4    1    1
 0.001208597786887773    4    4    2    1
 0.5560773049888151    4    4    2    2
 -0.005930203432273866    4    4    3    1
 -0.002000738158508343    4    4    3    2
 0.5677688244243415    4    4    3    3
 -0.0006555057793177447    4    4    4    1
 0.002804813198628466    4    4    4    2
 0.0004397035006163848    4    4    4    3
 0.612306815172202    4    4    4    4
 3.770617818193989e-05    5    1    1    1
 -0.002711977726044663    5    1    2    1
 0.0005331846308091593    5    1    2    2
 9.190612884167875e-05    5    1    3    1
 -0.006711774428990209    5    1    3    2
 8.502907873426973e-05    5    1    3    3
 0.002332027447244935    5    1    4    1
 -0.0004088455417873813    5    1    4    2
 0.01082985280110634    5    1    4    3
 -0.001025376354833597    5    1    4    4
 0.03131622139730723    5    1    5    1
 0.004309464542540927    5    2    1    1
 -0.0002965499955957778    5    2    2    1
 -0.001709372249145493    5    2    2    2
 0.006916275832736319    5    2    3    1
 -0.0008292527081518243    5    2    3    2
 0.009729274349881521    5    2    3    3
 -0.0001581518453449419    5    2    4    1
 0.00252229839574088    5    2    4    2
 -0.0005998657273516542    5    2    4    3
 -0.01211777721294012    5    2    4    4
 0.0007265692375870462    5    2    5    1
 0.03110395175014952    5    2    5    2
 -0.001222876046330628    5    3    1    1
 0.0009220632553140367    5    3    2    1
 -0.0002713378725931465    5    3    2    2
 0.0001854913325650393    5    3    3    1
 -0.003244512798299688    5    3    3    2
 4.903462031940735e-05    5    3    3    3
 -0.008120347022508266    5    3    4    1
 0.001004109952915467    5    3    4    2
 -0.004926273573007    5    3    4    3
 -0.0002681325662426922    5    3    4    4
 -0.005418826536666086    5    3    5    1
 0.0008333373824190307    5    3    5    2
 0.02202746967521348    5    3    5    3
 -0.008873937182707176    5    4    1    1
 0.0006106885241079726    5    4    2    1
 -0.01004695572052345    5    4    2    2
 -0.001703996489445813    5    4    3    1
 -0.000782012932817045    5    4    3    2
 0.002907263625650979    5    4    3    3
 0.0002584660791231381    5    4    4    1
 0.006447202246907761    5    4    4    2
 -4.445474659158619e-05    5    4    4    3
 -0.007388454439921631    5    4    4    4
 -0.0002821855235559349    5    4    5    1
 0.005150709854350745    5    4    5    2
 0.0008322663548805389    5    4    5    3
 0.02069134039246571    5    4    5    4
 0.5625974191954864    5    5    1    1
 -0.0002756181066881306    5    5    2    1
 0.5446170385470096    5    5    2    2
 0.008231205793262891    5    5    3    1
 -0.002293279262245284    5    5    3    2
 0.5652549407572891    5    5    3    3
 -0.0001754481359506066    5    5    4    1
 -0.004293759362208318    5    5    4    2
 -0.001041750865652797    5    5    4    3
 0.5615227776265925    5    5    4    4
 -0.0004157047394874062    5    5    5    1
 0.0009046866960778499    5    5    5    2
 -7.933934705645854e-05    5    5    5    3
 -0.006695182278496995    5    5    5    4
 0.5945872572236774    5    5    5    5
 0.0007481713662375079    6    1    1    1
 0.0007870570955513473    6    1    2    1
 0.0005156123482843416    6    1    2    2
 0.0002427931093366297    6    1    3    1
 4.542037904464846e-05    6    1    3    2
 0.0004142007496364936    6    1    3    3
 0.0004933223541363384    6    1    4    1
 -0.0001370694414499472    6    1    4    2
 0.001313546751590016    6    1    4    3
 -9.24189198602683e-05    6    1    4    4
 0.001544383371803383    6    1    5    1
 0.0002203876711715816    6    1    5    2
 -0.001103495285118927    6    1    5    3
 -8.999647231710001e-05    6    1    5    4
 0.0002113235496089221    6    1    5    5
 0.0007402711983765432    6    1    6    1
 0.02942898837202683    6    2    1    1
 5.572834748028819e-05    6    2    2    1
 0.02974374857779367    6    2    2    2
 0.0004063039511390745    6    2    3    1
 -0.0002821307832553402    6    2    3    2
 0.02919855829758021    6    2    3    3
 -0.0003179726815659395    6    2    4    1
 0.0004256700127358239    6    2    4    2
 7.761819225040912e-05    6    2    4    3
 0.02589334529400395    6    2    4    4
 0.0001909490224867463    6    2    5    1
 0.001916961975446497    6    2    5    2
 0.000240221133232037    6    2    5    3
 0.0003951361754012324    6    2    5    4
 0.02688003385688126    6    2    5    5
 7.524977154033986e-05    6    2    6    1
 0.005441773551024384    6    2    6    2
 0.003155581062093384    6    3    1    1
 0.0004683238758436444    6    3    2    1
 0.002200123418457531    6    3    2    2
 0.0002119275535760992    6    3    3    1
 0.00432811527191827    6    3    3    2
 0.003572101814739532    6    3    3    3
 0.002229938283082837    6    3    4    1
 7.694301861572953e-05    6    3    4    2
 -0.002293667318492345    6    3    4    3
 0.002279651600210737    6    3    4    4
 -0.002458500875153224    6    3    5    1
 0.0003899748583505109    6    3    5    2
 -0.0006855792987555221    6    3    5    3
 0.0001116554665879269    6    3    5    4
 0.002691460056736794    6    3    5    5
 -1.306693561116753e-05    6    3    6    1
 0.0004720793737622319    6    3    6    2
 0.001124014906364717    6    3    6    3
 -0.0182990431540232    6    4    1    1
 -0.0001403000123142478    6    4    2    1
 -0.01817877102742641    6    4    2    2
 0.001335178016646988    6    4    3    1
 0.0001409860084941435    6    4    3    2
 -0.02093151629230461    6    4    3    3
 -0.0003969145627352583    6    4    4    1
 0.0003759013416513051    6    4    4    2
 -0.0001538281206939732    6    4    4    3
 -0.02484848404320508    6    4    4    4
 -1.142022264297851e-06    6    4    5    1
 0.002083807899875003    6    4    5    2
 0.0001683731547961955    6    4    5    3
 -0.0001120837317749913    6    4    5    4
 -0.02089202076678204    6    4    5    5
 -2.513659993768534e-05    6    4    6    1
 -0.003180102504595821    6    4    6    2
 -0.0003023597407301812    6    4    6    3
 0.003290508071465043    6    4    6    4
 -0.00039157580523968    6    5    1    1
 0.0001556985763137354    6    5    2    1
 -0.0003519580926329066    6    5    2    2
 -0.001043499129903314    6    5    3    1
 0.0003359101382377522    6    5    3    2
 -0.003736528856948638    6    5    3    3
 -0.0002106037566415772    6    5    4    1
 0.001215516170838038    6    5    4    2
 5.362030659969132e-05    6    5    4    3
 -0.005045372850043327    6    5    4    4
 -5.249674787130619e-05    6    5    5    1
 0.001930510786041262    6    5    5    2
 0.0001687778137851645    6    5    5    3
 -0.0006210065280450686    6    5    5    4
 -0.006303984232657083    6    5    5    5
 8.401403296888354e-06    6    5    6    1
 -0.0003573423985730802    6    5    6    2
 -1.745449731066276e-05    6    5    6    3
 0.0006891343117767744    6    5    6    4
 0.001084248261174273    6    5    6    5
 0.1994483430997111    6    6    1    1
 -0.0002274356343747634    6    6    2    1
 0.2004287402594662    6    6    2    2
 0.0009762902164230994    6    6    3    1
 0.0007640355320707236    6    6    3    2
 0.1897180644563001    6    6    3    3
 -0.00044674603189763    6    6    4    1
 -0.005951999647952845    6    6    4    2
 -0.0005366773660743424    6    6    4    3
 0.1962191622109003    6    6    4    4
 -0.000322992380296453    6    6    5    1
 -0.002072703250672779    6    6    5    2
 -0.0003242708447114817    6    6    5    3
 -0.003111783612825359    6    6    5    4
 0.193458099468848    6    6    5    5
 -0.0005466291225072299    6    6    6    1
 -0.01974541679443916    6    6    6    2
 -0.002052199234226273    6    6    6    3
 0.01283062639350727    6    6    6    4
 0.002102353035674888    6    6    6    5
 0.4279324382256094    6    6    6    6
 0.004190783451821452    7    1    1    1
 -0.0002436212345575196    7    1    2    1
 0.003727824407772073    7    1    2    2
 -1.353418189070691e-05    7    1    3    1
 -0.0002940476874875766    7    1    3    2
 0.00358016509545374    7    1    3    3
 -0.0004150034177103882    7    1    4    1
 6.001785532919531e-05    7    1    4    2
 0.0001554977440419922    7    1    4    3
 0.003475759439483406    7    1    4    4
 0.0006806238890664211    7    1    5    1
 7.081926714678526e-05    7    1    5    2
 3.203612101443612e-05    7    1    5    3
 -6.333669607422627e-05    7    1    5    4
 0.003450372000648701    7    1    5    5
 8.386477969773851e-06    7    1    6    1
 0.0005297914495768119    7    1    6    2
 -2.542343900671471e-05    7    1    6    3
 -0.0003315265334095728    7    1    6    4
 -2.764794058151507e-05    7    1    6    5
 -0.002622874444284328    7    1    6    6
 0.0002338822346439975    7    1    7    1
 -0.005017587344421064    7    2    1    1
 0.0001193869447954189    7    2    2    1
 -0.00531684024366252    7    2    2    2
 0.0003609675922627298    7    2    3    1
 4.131867455073699e-06    7    2    3    2
 -0.004734698014593658    7    2    3    3
 2.345651043233576e-05    7    2    4    1
 -0.0004690928620639096    7    2    4    2
 -7.30034126981906e-05    7    2    4    3
 -0.004946487757813529    7    2    4    4
 -2.075814793787696e-05    7    2    5    1
 0.000680936401457414    7    2    5    2
 9.911527023602514e-06    7    2    5    3
 7.179557432307666e-05    7    2    5    4
 -0.004456962329414161    7    2    5    5
 5.939570671761285e-05    7    2    6    1
 -0.000748702604996338    7    2    6    2
 -5.918160925507915e-05    7    2    6    3
 0.000378203058100564    7    2    6    4
 0.0002644754469932065    7    2    6    5
 0.00290977774490366    7    2    6    6
 -0.0001053745885952687    7    2    7    1
 0.0005584854391404534    7    2    7    2
 -0.0003622591245411168    7    3    1    1
 9.251503212418522e-07    7    3    2    1
 -0.0002845435048113408    7    3    2    2
 0.0003035093582144541    7    3    3    1
 -0.0005296810539559128    7    3    3    2
 -0.0003647134473815362    7    3    3    3
 -0.0004920046314203308    7    3    4    1
 -8.185684900430559e-05    7    3    4    2
 -0.0003333772046887226    7    3    4    3
 -0.0003250939641158989    7    3    4    4
 -9.126917860337482e-05    7    3    5    1
 7.589603277392852e-05    7    3    5    2
 0.0007115030569778301    7    3    5    3
 -8.707641307301456e-06    7    3    5    4
 -0.0001867656382554327    7    3    5    5
 -1.038179369542628e-05    7    3    6    1
 -4.14028238189114e-05    7    3    6    2
 -8.036245815923771e-05    7    3    6    3
 3.546330554477723e-05    7    3    6    4
 1.676981249817056e-05    7    3    6    5
 0.0002647965980916811    7    3    6    6
 3.022573012093381e-06    7    3    7    1
 5.855419379195169e-05    7    3    7    2
 6.002155267941882e-05    7    3    7    3
 -0.004720004850710805    7    4    1    1
 -7.696887918375709e-06    7    4    2    1
 -0.004615282369081232    7    4    2    2
 2.351843245021921e-05    7    4    3    1
 0.0001086621155644314    7    4    3    2
 -0.004349640542650092    7    4    3    3
 0.0003629174364395416    7    4    4    1
 -0.0001816806786719044    7    4    4    2
 2.667562372395502e-05    7    4    4    3
 -0.004887395034636274    7    4    4    4
 3.976829094543794e-05    7    4    5    1
 0.000136909344518866    7    4    5    2
 -8.926965600743966e-05    7    4    5    3
 0.0006120643259698551    7    4    5    4
 -0.004386970030970887    7    4    5    5
 -4.419029492817227e-05    7    4    6    1
 -0.0006442270503039941    7    4    6    2
 -3.611460563159181e-05    7    4    6    3
 0.0005706486447103082    7    4    6    4
 -7.018330860271298e-05    7    4    6    5
 0.003634609569412547    7    4    6    6
 -0.0001050038011851203    7    4    7    1
 -9.994938564581593e-05    7    4    7    2
 -2.550192089281229e-05    7    4    7    3
 0.0003425696153302308    7    4    7    4
 0.01142513693734606    7    5    1    1
 -4.837520016045934e-05    7    5    2    1
 0.01100515615322822    7    5    2    2
 0.0002402629880634516    7    5    3    1
 -0.000148443423402512    7    5    3    2
 0.01168751170049198    7    5    3    3
 4.370497275801646e-05    7    5    4    1
 -0.0002020603350066565    7    5    4    2
 9.401452765491253e-05    7    5    4    3
 0.01192968915616952    7    5    4    4
 0.0003136251651866168    7    5    5    1
 -0.0003965243628399609    7    5    5    2
 -9.665330711788761e-05    7    5    5    3
 -0.000476168777021711    7    5    5    4
 0.01284726779471204    7    5    5    5
 2.948198671061147e-05    7    5    6    1
 0.001585402147745151    7    5    6    2
 0.0001295899462353459    7    5    6    3
 -0.001219701628605714    7    5    6    4
 -0.0003223546948331274    7    5    6    5
 -0.006760925470526707    7    5    6    6
 0.0002169761275473875    7    5    7    1
 -0.0003155835062349567    7    5    7    2
 -2.044526404312494e-05    7    5    7    3
 -0.0002910022964354101    7    5    7    4
 0.0008043037639776342    7    5    7    5
 -0.0009795227560810485    7    6    1    1
 5.600920732883589e-05    7    6    2    1
 -0.001375714715347066    7    6    2    2
 0.0005881160151101707    7    6    3    1
 -0.0001375556043589431    7    6    3    2
 -0.0006936747272503781    7    6    3    3
 -0.0002092152291218677    7    6    4    1
 -0.0004444551037090505    7    6    4    2
 -0.0001765637847281703    7    6    4    3
 -0.0007857741594983648    7    6    4    4
 -7.24636367143743e-05    7    6    5    1
 0.0007520661993726193    7    6    5    2
 0.0001351990743134248    7    6    5    3
 -0.000241676228313638    7    6    5    4
 -0.000319265219413486    7    6    5    5
 -0.0005812188936010379    7    6    6    1
 0.0004961841424962151    7    6    6    2
 5.968573837189257e-05    7    6    6    3
 0.001039424051018341    7    6    6    4
 -0.001116429212988206    7    6    6    5
 0.0003646790756978881    7    6    6    6
 -2.168080047268753e-05    7    6    7    1
 -0.002380411829073445    7    6    7    2
 -0.0002642533330301638    7    6    7    3
 0.001862792964980013    7    6    7    4
 0.0001642292673139584    7    6    7    5
 0.02658720127136949    7    6    7    6
 0.1788649620775815    7    7    1    1
 -0.0002619512969585034    7    7    2    1
 0.1788071404284882    7    7    2    2
 0.0006648445879385888    7    7    3    1
 0.0004273409480881709    7    7    3    2
 0.1713544087353255    7    7    3    3
 -0.0004201705995651624    7    7    4    1
 -0.004090942406216012    7    7    4    2
 -0.0003036268334569514    7    7    4    3
 0.1763535233032687    7    7    4    4
 -7.78286190198812e-05    7    7    5    1
 -0.00159030798251917    7    7    5    2
 -0.0002729639259849715    7    7    5    3
 -0.002439877338947427    7    7    5    4
 0.1743849991966692    7    7    5    5
 -0.0003593106962607798    7    7    6    1
 -0.01690675785318921    7    7    6    2
 -0.001799701574307084    7    7    6    3
 0.01143642171758204    7    7    6    4
 0.001617106219212357    7    7    6    5
 0.3763765917527861    7    7    6    6
 -0.002946860107128926    7    7    7    1
 0.00363839015656919    7    7    7    2
 0.0002297294131182216    7    7    7    3
 0.003822903390620493    7    7    7    4
 -0.00889806268140262    7    7    7    5
 0.00057896232391654    7    7    7    6
 0.4329901361002761    7    7    7    7
 -0.01965765661606183    8    1    1    1
 -5.624567991109182e-05    8    1    2    1
 -0.01720485156851066    8    1    2    2
 -3.019955428306282e-05    8    1    3    1
 -0.0001087230694531269    8    1    3    2
 -0.01684407098853118    8    1    3    3
 -1.061927247998214e-06    8    1    4    1
 -0.0003002665464002767    8    1    4    2
 5.166237810890942e-05    8    1    4    3
 -0.01620176968317028    8    1    4    4
 0.0001970957526840169    8    1    5    1
 -0.0002734916327080773    8    1    5    2
 -7.608001893343899e-06    8    1    5    3
 0.000266491398567518    8    1    5    4
 -0.01609688568527712    8    1    5    5
 -4.429338662807113e-05    8    1    6    1
 -0.002484781107138046    8    1    6    2
 -0.0002736556208620676    8    1    6    3
 0.001585963693067851    8    1    6    4
 0.0001520932670759307    8    1    6    5
 0.01244573033789803    8    1    6    6
 -0.0003748154558324026    8    1    7    1
 0.0004290233010544877    8    1    7    2
 3.120515582174095e-05    8    1    7    3
 0.0004282061424392353    8    1    7    4
 -0.0009363880988441632    8    1    7    5
 -3.353625169060941e-05    8    1    7    6
 0.0116817375059947    8    1    7    7
 0.001913379241668352    8    1    8    1
 0.0001371467521981705    8    2    1    1
 -0.00080357428654575    8    2    2    1
 6.443538216493356e-05    8    2    2    2
 0.0001440182402390605    8    2    3    1
 -0.0001284393137809595    8    2    3    2
 0.0001950841734581948    8    2    3    3
 2.967209256698517e-05    8    2    4    1
 -8.712268409045163e-05    8    2    4    2
 0.0001313188223533059    8    2    4    3
 -2.623377259077573e-05    8    2    4    4
 0.0001938366235855394    8    2    5    1
 0.0002593542434609421    8    2    5    2
 -5.595038747776402e-05    8    2    5    3
 1.701360778682161e-05    8    2    5    4
 0.0001812725172986472    8    2    5    5
 -0.0003250000868616087    8    2    6    1
 6.045209991129362e-05    8    2    6    2
 -5.711309763353631e-05    8    2    6    3
 -2.146336653735586e-05    8    2    6    4
 4.952562805332053e-05    8    2    6    5
 -0.0002363119963613249    8    2    6    6
 6.080180513881134e-05    8    2    7    1
 1.896361484514178e-05    8    2    7    2
 -1.885577733283604e-05    8    2    7    3
 -5.777986614750649e-06    8    2    7    4
 1.431043516376097e-05    8    2    7    5
 -4.21647395018454e-05    8    2    7    6
 -0.0001831177322080906    8    2    7    7
 -2.394094971407831e-05    8    2    8    1
 0.0003874831558192346    8    2    8    2
 -0.001103634890597538    8    3    1    1
 7.573162183803027e-05    8    3    2    1
 -0.0008985152372481716    8    3    2    2
 -0.001289858104771493    8    3    3    1
 8.103960554556174e-05    8    3    3    2
 -0.001264438910523746    8    3    3    3
 6.818221062752699e-07    8    3    4    1
 0.0003536656090344587    8    3    4    2
 -2.566528826454315e-05    8    3    4    3
 -0.0008395137129906207    8    3    4    4
 -9.372745210110446e-05    8    3    5    1
 -0.0003344907854172813    8    3    5    2
 0.000109555830250657    8    3    5    3
 7.060536138101464e-05    8    3    5    4
 -0.001472066682169708    8    3    5    5
 -4.141887512191803e-05    8    3    6    1
 -0.0002018064090983515    8    3    6    2
 -1.238877061411524e-05    8    3    6    3
 7.821325406978507e-05    8    3    6    4
 6.256763844589646e-05    8    3    6    5
 0.001022154730517511    8    3    6    6
 -2.142883145342571e-05    8    3    7    1
 -1.524192608444807e-05    8    3    7    2
 -1.240177157916484e-05    8    3    7    3
 4.29928179736659e-05    8    3    7    4
 -8.150899563057822e-05    8    3    7    5
 5.368607306618083e-05    8    3    7    6
 0.0007585676878631298    8    3    7    7
 0.0001299009332249641    8    3    8    1
 3.218625505105894e-06    8    3    8    2
 9.261200463779762e-05    8    3    8    3
 -0.0008327168838483323    8    4    1    1
 2.850286692629137e-05    8    4    2    1
 -0.000685357714323076    8    4    2    2
 5.107739947146929e-05    8    4    3    1
 -0.0004380270198435795    8    4    3    2
 -0.000913079998907778    8    4    3    3
 -0.001488665710632751    8    4    4    1
 2.135035538907065e-05    8    4    4    2
 -0.0002905543311070442    8    4    4    3
 -0.000955880064246051    8    4    4    4
 -0.0001880034276658806    8    4    5    1
 8.853077107028388e-05    8    4    5    2
 0.0004373014838895737    8    4    5    3
 0.0001189842395680762    8    4    5    4
 -0.0008430054825057728    8    4    5    5
 0.0001651666149499998    8    4    6    1
 -0.0001096247611031684    8    4    6    2
 -7.991599206351265e-05    8    4    6    3
 0.0001341818714487333    8    4    6    4
 -2.68842581474287e-06    8    4    6    5
 0.0005228931480895462    8    4    6    6
 2.904761023486407e-05    8    4    7    1
 1.537709283815235e-05    8    4    7    2
 4.872858677296401e-05    8    4    7    3
 6.870413283110917e-06    8    4    7    4
 -6.208392290336973e-05    8    4    7    5
 9.440718914366118e-05    8    4    7    6
 0.0005118371564032579    8    4    7    7
 7.198314923671193e-05    8    4    8    1
 -0.0002194115761230758    8    4    8    2
 -6.941480056317479e-06    8    4    8    3
 0.0002599490344013637    8    4    8    4
 0.002570329884594586    8    5    1    1
 0.0001364869783876967    8    5    2    1
 0.002449036329966154    8    5    2    2
 1.001800892655039e-05    8    5    3    1
 0.0003224179146124151    8    5    3    2
 0.002539179652708421    8    5    3    3
 -9.433297066437114e-05    8    5    4    1
 3.793834472721658e-05    8    5    4    2
 -0.0005111309366255722    8    5    4    3
 0.002561491082666273    8    5    4    4
 -0.001461300684736941    8    5    5    1
 -2.786311022142689e-05    8    5    5    2
 0.0001951376559661394    8    5    5    3
 -6.333595890491909e-05    8    5    5    4
 0.002697375719020832    8    5    5    5
 -3.213092479406281e-05    8    5    6    1
 0.0003555052640203726    8    5    6    2
 0.0001675776448039866    8    5    6    3
 -0.0002617640306471488    8    5    6    4
 -4.306981512142393e-05    8    5    6    5
 -0.001607600223550465    8    5    6    6
 -4.662199351419312e-05    8    5    7    1
 -5.248003668570449e-05    8    5    7    2
 2.916810178339914e-07    8    5    7    3
 -7.174029458261954e-05    8    5    7    4
 0.0001443168777042055    8    5    7    5
 -1.833205766400869e-05    8    5    7    6
 -0.001626006747555643    8    5    7    7
 -0.0002409679457137706    8    5    8    1
 -6.016605832570418e-05    8    5    8    2
 -2.08298538560259e-05    8    5    8    3
 1.114792320266307e-05    8    5    8    4
 0.0001690924220332566    8    5    8    5
 0.000136157515737845    8    6    1    1
 -0.0006217321395930631    8    6    2    1
 -8.207880611831776e-06    8    6    2    2
 9.605997059449674e-05    8    6    3    1
 0.0001310492699870919    8    6    3    2
 0.000149686879839    8    6    3    3
 0.0008355518386629456    8    6    4    1
 -0.0001916481660362398    8    6    4    2
 0.0004138139600495485    8    6    4    3
 2.426703584632969e-05    8    6    4    4
 0.0004361475071648024    8    6    5    1
 0.0001577868454871273    8    6    5    2
 -0.0003393059377819891    8    6    5    3
 -0.0001012605215021628    8    6    5    4
 0.0001906773100585173    8    6    5    5
 0.00279939966951006    8    6    6    1
 -8.576742117998005e-05    8    6    6    2
 0.0003628082217902476    8    6    6    3
 9.609953966912426e-05    8    6    6    4
 -0.0003201674213147091    8    6    6    5
 -0.0001172713804403744    8    6    6    6
 -8.328874067924314e-05    8    6    7    1
 -4.424712649682159e-05    8    6    7    2
 5.063732604937773e-05    8    6    7    3
 8.761840502794768e-05    8    6    7    4
 -3.464935942204568e-06    8    6    7    5
 2.938651071334064e-05    8    6    7    6
 -5.529789663982522e-05    8    6    7    7
 -1.823907343299804e-05    8    6    8    1
 -0.002318164819900778    8    6    8    2
 -0.0001487706031948811    8    6    8    3
 0.001512764662279317    8    6    8    4
 0.0001823945510789262    8    6    8    5
 0.02658460393461377    8    6    8    6
 -0.0005681778923000182    8    7    1    1
 0.0001495892931264217    8    7    2    1
 -0.0003591944140161791    8    7    2    2
 -2.279121677285784e-06    8    7    3    1
 0.000144356397016606    8    7    3    2
 -0.000268833841962954    8    7    3    3
 0.0002453548322069607    8    7    4    1
 -2.921808249084137e-05    8    7    4    2
 -5.821760496374198e-05    8    7    4    3
 -0.0001636054882103746    8    7    4    4
 -0.0003302798737880458    8    7    5    1
 -8.208825738737548e-05    8    7    5    2
 -3.469774209820848e-05    8    7    5    3
 -3.998218668784734e-05    8    7    5    4
 -0.0001324539093483736    8    7    5    5
 -0.0001068113021649725    8    7    6    1
 -0.0001027487723870297    8    7    6    2
 0.0001335597225762383    8    7    6    3
 6.940116102668905e-05    8    7    6    4
 -4.347926620155463e-05    8    7    6    5
 0.0001578197319403101    8    7    6    6
 0.001086023453297539    8    7    7    1
 -2.461231969440528e-05    8    7    7    2
 9.839136630705216e-06    8    7    7    3
 5.087464173266141e-05    8    7    7    4
 -0.0002078948123953058    8    7    7    5
 -1.628001168106236e-06    8    7    7    6
 0.0002583297400275581    8    7    7    7
 -0.0002781261904997528    8    7    8    1
 0.0003049382789652244    8    7    8    2
 6.74318226720318e-05    8    7    8    3
 0.0003957444053896183    8    7    8    4
 -0.0009129182504128103    8    7    8    5
 5.646364260036613e-05    8    7    8    6
 0.02694018868193652    8    7    8    7
 0.1811257551376586    8    8    1    1
 -0.0001908411731301508    8    8    2    1
 0.1800332206328721    8    8    2    2
 0.0008230605043809489    8    8    3    1
 0.0005660931269670048    8    8    3    2
 0.1725020833515014    8    8    3    3
 -0.0002650179263119353    8    8    4    1
 -0.004036092332350031    8    8    4    2
 -0.0003835474624150756    8    8    4    3
 0.1767993017784922    8    8    4    4
 -0.0003714395784199282    8    8    5    1
 -0.001151904374293055    8    8    5    2
 -0.0002958275749080184    8    8    5    3
 -0.002234060918710307    8    8    5    4
 0.1748886870128961    8    8    5    5
 -0.0003589778675422636    8    8    6    1
 -0.01659620681996932    8    8    6    2
 -0.001567934419205746    8    8    6    3
 0.01116976752486648    8    8    6    4
 0.001764153018348121    8    8    6    5
 0.3757767738883691    8    8    6    6
 -0.00251622911591529    8    8    7    1
 0.002880404695728898    8    8    7    2
 0.0002786516087385851    8    8    7    3
 0.003330109068638978    8    8    7    4
 -0.007087917657487012    8    8    7    5
 0.0003814740808943066    8    8    7    6
 0.3780166402952642    8    8    7    7
 0.01421638159966385    8    8    8    1
 -0.0001733700606964829    8    8    8    2
 0.0009566578712287416    8    8    8    3
 0.0006791262670983195    8    8    8    4
 -0.001998070432025005    8    8    8    5
 -7.089722167407227e-05    8    8    8    6
 0.0002094670359845995    8    8    8    7
 0.4310862628127246    8    8    8    8
 0.0002810731481209888    9    1    1    1
 -7.627434624732088e-05    9    1    2    1
 0.0002120879205690189    9    1    2    2
 7.461790321715324e-05    9    1    3    1
 2.552845544865532e-05    9    1    3    2
 0.0002539963815681028    9    1    3    3
 0.0003626617947560248    9    1    4    1
 -3.683150644463091e-05    9    1    4    2
 0.0002096442164665179    9    1    4    3
 0.0001735554726727386    9    1    4    4
 0.0004039051231052466    9    1    5    1
 3.61730142465466e-05    9    1    5    2
 -0.0001918084445346387    9    1    5    3
 -1.565293696816876e-05    9    1    5    4
 0.0002464713154430989    9    1    5    5
 3.153124910520807e-05    9    1    6    1
 1.636715404438773e-05    9    1    6    2
 -8.922965090361593e-06    9    1    6    3
 -7.919522767845088e-06    9    1    6    4
 -4.893056570328415e-06    9    1    6    5
 5.072685676271735e-05    9    1    6    6
 5.724848518158957e-06    9    1    7    1
 -1.370480343351691e-06    9    1    7    2
 -6.945349792978512e-06    9    1    7    3
 2.633043433956798e-06    9    1    7    4
 1.115025301357252e-05    9    1    7    5
 2.993194439223275e-07    9    1    7    6
 3.503113962397615e-05    9    1    7    7
 -8.193643281758876e-06    9    1    8    1
 4.910281921408711e-06    9    1    8    2