 &FCI NORB=  14,NELEC=22,MS2=0,
  ORBSYM=1,1,1,1,1,1,1,1,1,1,1,1,1,1,
  ISYM=1,
 &END
 0.696130447842503    1    1    1    1
 0.1258806137710159    2    1    1    1
 0.07686840947698155    2    1    2    1
 0.2767386593895494    2    2    1    1
 -0.1250795775596524    2    2    2    1
 0.677445742557615    2    2    2    2
 -0.01783299920533057    3    1    1    1
 -0.01090134955935707    3    1    2    1
 0.01765225857404053    3    1    2    2
 0.002771172744593201    3    1    3    1
 -0.0061065114217713    3    2    1    1
 0.01419925152051341    3    2    2    1
 -0.05023658982074058    3    2    2    2
 -0.005284715565493948    3    2    3    1
 0.02743242425980926    3    2    3    2
 0.2114222480041553    3    3    1    1
 -0.03462022634243891    3    3    2    1
 0.3295760580210657    3    3    2    2
 0.001909843472482647    3    3    3    1
 0.05568285258743916    3    3    3    2
 0.6564534570802487    3    3    3    3
 0.008916438124368549    4    1    1    1
 0.004494141242279408    4    1    2    1
 -0.005298734050023048    4    1    2    2
 -0.003246641503931343    4    1    3    1
 0.003424812239259788    4    1    3    2
 -0.001978104335320095    4    1    3    3
 0.01109223661859064    4    1    4    1
 -0.01235625926938907    4    2    1    1
 -0.003529754134038866    4    2    2    1
 -0.001049310302638919    4    2    2    2
 0.00358413209855673    4    2    3    1
 -0.01541345264426937    4    2    3    2
 -0.007547144666823566    4    2    3    3
 -0.003031723436466135    4    2    4    1
 0.03088632516331111    4    2    4    2
 -0.0440910139464608    4    3    1    1
 -0.001262924017055687    4    3    2    1
 -0.03755237432968216    4    3    2    2
 -0.0005231686937565952    4    3    3    1
 0.01975370294658644    4    3    3    2
 0.1208952190583735    4    3    3    3
 0.004474072856584468    4    3    4    1
 0.02217656391667329    4    3    4    2
 0.1386738747714885    4    3    4    3
 0.2805882717380945    4    4    1    1
 -0.02509090208497073    4    4    2    1
 0.3653354663722768    4    4    2    2
 0.001778883503661365    4    4    3    1
 0.03758459866454977    4    4    3    2
 0.5154615156786284    4    4    3    3
 -0.006894112531615496    4    4    4    1
 -0.0337695081398967    4    4    4    2
 0.003962516142491927    4    4    4    3
 0.5185900786349299    4    4    4    4
 -0.001525871644616631    5    1    1    1
 -0.002573161214397083    5    1    2    1
 0.005962643849780668    5    1    2    2
 0.0002770355216382133    5    1    3    1
 0.01230842354491269    5    1    3    2
 0.02519552435205324    5    1    3    3
 -0.01139226287082548    5    1    4    1
 -0.01895860313406425    5    1    4    2
 -0.004326421079557537    5    1    4    3
 0.03404272938524519    5    1    4    4
 0.0372061218196777    5    1    5    1
 -0.0138875787489499    5    2    1    1
 -0.003730090587500744    5    2    2    1
 -0.002537461081586497    5    2    2    2
 0.009227494252275927    5    2    3    1
 -0.03391557366458307    5    2    3    2
 -0.03698422121626799    5    2    3    3
 -0.01558576653874794    5    2    4    1
 0.04320466711118529    5    2    4    2
 -0.004901360778473729    5    2    4    3
 -0.04191702914847346    5    2    4    4
 -0.01971025956837391    5    2    5    1
 0.09256757832700059    5    2    5    2
 0.01361668264563484    5    3    1    1
 0.02935838016152531    5    3    2    1
 -0.08051605789845821    5    3    2    2
 -0.003280838539972839    5    3    3    1
 0.01569264749320798    5    3    3    2
 0.0372423603163961    5    3    3    3
 -0.0004204795446848767    5    3    4    1
 -0.007641657204976383    5    3    4    2
 -0.0004862406354261822    5    3    4    3
 0.02598389817972793    5    3    4    4
 0.005027841946918676    5    3    5    1
 -0.004841041250291138    5    3    5    2
 0.04263331070419231    5    3    5    3
 -0.05447198224384307    5    4    1    1
 -0.05245218556624269    5    4    2    1
 0.1151435550905406    5    4    2    2
 0.005480206383724476    5    4    3    1
 -0.01564267183745847    5    4    3    2
 0.001559700469218826    5    4    3    3
 0.004551470286069131    5    4    4    1
 0.003674254527188876    5    4    4    2
 0.01676441516946715    5    4    4    3
 -0.01478468761989539    5    4    4    4
 -0.00503249068583344    5    4    5    1
 -0.004011081109747678    5    4    5    2
 -0.04171455318874972    5    4    5    3
 0.07015766246181006    5    4    5    4
 0.3238087858849205    5    5    1    1
 -0.05983659890506817    5    5    2    1
 0.514747775271883    5    5    2    2
 0.00605482209402586    5    5    3    1
 -0.009202316501076399    5    5    3    2
 0.3660737144387555    5    5    3    3
 -0.003679976097132417    5    5    4    1
 -0.0201551935700394    5    5    4    2
 -0.03947879310179753    5    5    4    3
 0.4008185911576989    5    5    4    4
 0.01941354069797267    5    5    5    1
 -0.03066967258428506    5    5    5    2
 -0.03766967875384755    5    5    5    3
 0.05451490428911603    5    5    5    4
 0.4727098222482063    5    5    5    5
 0.00473491498356867    6    1    1    1
 0.001217000542330267    6    1    2    1
 -0.001226800727748316    6    1    2    2
 0.003383364030040405    6    1    3    1
 -0.001078011808412388    6    1    3    2
 0.006268901810234569    6    1    3    3
 -0.02001140970796485    6    1    4    1
 -0.003302272812617855    6    1    4    2
 -0.005989657066204169    6    1    4    3
 0.0127538323998285    6    1    4    4
 0.04605811599609163    6    1    5    1
 0.02102452420913632    6    1    5    2
 0.003407397633886763    6    1    5    3
 -0.007921061448528614    6    1    5    4
 0.001702034103523328    6    1    5    5
 0.1074257031616275    6    1    6    1
 -0.001207369067359535    6    2    1    1
 -0.001687848698741295    6    2    2    1
 0.004042600383890589    6    2    2    2
 -0.002378521921537164    6    2    3    1
 0.01454268587601261    6    2    3    2
 0.02272200713931961    6    2    3    3
 -0.001944838907939095    6    2    4    1
 -0.01302982291173944    6    2    4    2
 0.005725360278346991    6    2    4    3
 0.02077867715643267    6    2    4    4
 0.02308256217224503    6    2    5    1
 -0.02830854361558945    6    2    5    2
 2.885627314206013e-05    6    2    5    3
 0.001452478770723188    6    2    5    4
 0.01623308220713377    6    2    5    5
 0.02537447071983131    6    2    6    1
 0.02558058857634575    6    2    6    2
 0.0005955427103934901    6    3    1    1
 -0.009978986805636768    6    3    2    1
 0.03256366013134066    6    3    2    2
 0.001165773758207823    6    3    3    1
 -0.005895569225744993    6    3    3    2
 -0.01132330392043162    6    3    3    3
 0.001312444968766121    6    3    4    1
 0.006348839318319499    6    3    4    2
 0.01934799232058751    6    3    4    3
 -0.01677642229180756    6    3    4    4
 -0.004969927663292266    6    3    5    1
 0.0004279513765693494    6    3    5    2
 -0.02212391100722012    6    3    5    3
 0.02039569147540262    6    3    5    4
 0.01176019391155238    6    3    5    5
 -0.007733845226869342    6    3    6    1
 -0.001327826022004836    6    3    6    2
 0.01669674961080393    6    3    6    3
 -0.0484810814081998    6    4    1    1
 -0.007486111452776041    6    4    2    1
 -0.02178380671322667    6    4    2    2
 0.0006181471059831049    6    4    3    1
 0.01185728344706447    6    4    3    2
 0.05149292095300055    6    4    3    3
 -0.001718517203678093    6    4    4    1
 -0.00305560399472324    6    4    4    2
 0.001966161122256432    6    4    4    3
 0.04159762825922468    6    4    4    4
 0.005524501058382142    6    4    5    1
 -0.002584473177911061    6    4    5    2
 0.01573399047807169    6    4    5    3
 -0.01429526735922475    6    4    5    4
 -0.008377608668973394    6    4    5    5
 0.006240085743717786    6    4    6    1
 0.003777390778963298    6    4    6    2
 -0.01150225660942084    6    4    6    3
 0.02422373919048595    6    4    6    4
 0.1369499791172038    6    5    1    1
 0.07287349155170554    6    5    2    1
 -0.1024283734073487    6    5    2    2
 -0.008416272873059707    6    5    3    1
 -0.000744579752330837    6    5    3    2
 -0.07776980256959549    6    5    3    3
 0.002780302904663142    6    5    4    1
 0.003393758881028359    6    5    4    2
 -0.00326220783949177    6    5    4    3
 -0.05700405004143669    6    5    4    4
 -0.00908375717531696    6    5    5    1
 0.01030249522205271    6    5    5    2
 0.01941132555635246    6    5    5    3
 -0.0440409109340506    6    5    5    4
 -0.06334089727439275    6    5    5    5
 -0.004207319812186289    6    5    6    1
 -0.01003300292182235    6    5    6    2
 -0.002364808514830661    6    5    6    3
 -0.02241894095586626    6    5    6    4
 0.09154903711295909    6    5    6    5
 0.5522448114205175    6    6    1    1
 0.07838221726189373    6    6    2    1
 0.290664351592582    6    6    2    2
 -0.01201703191085597    6    6    3    1
 0.001493288449989639    6    6    3    2
 0.2602535390549095    6    6    3    3
 0.005247628180041604    6    6    4    1
 -0.01571798221178974    6    6    4    2
 -0.04026457302833483    6    6    4    3
 0.3115559925243174    6    6    4    4
 0.00318904048130314    6    6    5    1
 -0.0206955507232593    6    6    5    2
 0.01431907733170339    6    6    5    3
 -0.04305483797178736    6    6    5    4
 0.3350308271210394    6    6    5    5
 -0.005798662479930795    6    6    6    1
 0.0006245728332089556    6    6    6    2
 -0.003442430727245563    6    6    6    3
 -0.02993732333306343    6    6    6    4
 0.09254589165493807    6    6    6    5
 0.4986495020683469    6    6    6    6
 0.008436480741576897    7    1    1    1
 0.001866934087740199    7    1    2    1
 0.002078354200705104    7    1    2    2
 0.0002190127747350723    7    1    3    1
 -0.00320154477712943    7    1    3    2
 -0.006225262763102461    7    1    3    3
 0.003046903283194147    7    1    4    1
 -0.004178368939606348    7    1    4    2
 -0.003625153895584734    7    1    4    3
 -0.001695530505911728    7    1    4    4
 -0.006317083675399709    7    1    5    1
 -0.002060529920706301    7    1    5    2
 0.001827998926702596    7    1    5    3
 -0.001319708679201538    7    1    5    4
 -0.00155966360874759    7    1    5    5
 -0.0163009472923682    7    1    6    1
 -0.01177080075415389    7    1    6    2
 0.001031183862651183    7    1    6    3
 -0.002790623985354747    7    1    6    4
 0.005733088167925539    7    1    6    5
 0.0092288369796281    7    1    6    6
 0.01560404708520799    7    1    7    1
 -0.01782456265127791    7    2    1    1
 -0.00223806556780099    7    2    2    1
 -0.009857650766107834    7    2    2    2
 -0.002066859281893782    7    2    3    1
 0.00954527051306521    7    2    3    2
 0.01107732916485091    7    2    3    3
 -0.002985157112494436    7    2    4    1
 0.01756459980473837    7    2    4    2
 0.008951665243564328    7    2    4    3
 -0.001799097377393033    7    2    4    4
 -0.002368335662084776    7    2    5    1
 0.001832027361945142    7    2    5    2
 -0.006150763973859759    7    2    5    3
 0.002294657600370276    7    2    5    4
 0.006292186210713012    7    2    5    5
 -0.01028446013245063    7    2    6    1
 0.02195147151500215    7    2    6    2
 -0.0004474927624213707    7    2    6    3
 0.003869074752457342    7    2    6    4
 -0.007963801935985461    7    2    6    5
 -0.01169856429702755    7    2    6    6
 -0.0329977892155002    7    2    7    1
 0.1231414639395364    7    2    7    2
 0.01062511603526125    7    3    1    1
 -0.004388418657058789    7    3    2    1
 0.02389624426154447    7    3    2    2
 0.0004450668008394149    7    3    3    1
 -0.006706496013135215    7    3    3    2
 -0.03283702057672635    7    3    3    3
 -6.296106564823799e-05    7    3    4    1
 -0.007799219287944722    7    3    4    2
 -0.0330251368393361    7    3    4    3
 -0.005277037182101979    7    3    4    4
 0.001957619588633274    7    3    5    1
 -0.003691947841496949    7    3    5    2
 -0.005870377015395323    7    3    5    3
 -0.0002346905208299361    7    3    5    4
 0.0151006770246251    7    3    5    5
 0.001883571222161653    7    3    6    1
 -0.003429712160935188    7    3    6    2
 -0.001161544079186136    7    3    6    3
 -0.002704835715956542    7    3    6    4
 -0.003491846395629908    7    3    6    5
 0.01075858238201138    7    3    6    6
 0.006597826305148592    7    3    7    1
 -0.02276836695575507    7    3    7    2
 0.01651381561357118    7    3    7    3
 0.005498126781749443    7    4    1    1
 -0.01019756297947217    7    4    2    1
 0.03758981325650421    7    4    2    2
 0.001624521062995832    7    4    3    1
 -0.01327355838451494    7    4    3    2
 -0.04712605671620025    7    4    3    3
 -7.409596174193594e-05    7    4    4    1
 0.002768592253889757    7    4    4    2
 -0.01629618268272163    7    4    4    3
 -0.02951366768080052    7    4    4    4
 -0.00432215676269056    7    4    5    1
 0.005963088881706565    7    4    5    2
 -0.0156627089444946    7    4    5    3
 0.01693767910287133    7    4    5    4
 0.01183746333033605    7    4    5    5
 -0.003300972931435949    7    4    6    1
 -0.001981730561343481    7    4    6    2
 0.005902961458931363    7    4    6    3
 -0.01105570431134506    7    4    6    4
 0.001220608424533049    7    4    6    5
 -0.0006601317694869996    7    4    6    6
 -0.001040929617592439    7    4    7    1
 0.005533740501337861    7    4    7    2
 0.003064235110843117    7    4    7    3
 0.01840485214699728    7    4    7    4
 -0.01911144218528139    7    5    1    1
 -0.005862937873410892    7    5    2    1
 0.0003850895903734057    7    5    2    2
 0.002231435530249182    7    5    3    1
 -0.005784522431214573    7    5    3    2
 -0.01288929987289767    7    5    3    3
 -0.002954967680944426    7    5    4    1
 0.003955945361380942    7    5    4    2
 -0.008297972179261507    7    5    4    3
 -0.002548306989857429    7    5    4    4
 -0.001761004491180356    7    5    5    1
 0.01429645615818197    7    5    5    2
 0.001514996791972898    7    5    5    3
 0.00261001613707451    7    5    5    4
 -0.00510240507791861    7    5    5    5
 0.00382983391686092    7    5    6    1
 -0.00213297212965551    7    5    6    2
 -0.004007422405549566    7    5    6    3
 0.003831097606732232    7    5    6    4
 -0.001745378262564168    7    5    6    5
 -0.01980195643430071    7    5    6    6
 -0.003901765581574684    7    5    7    1
 0.01127954252008359    7    5    7    2
 -0.006973032935971889    7    5    7    3
 0.01147442512266914    7    5    7    4
 0.02676314321580729    7    5    7    5
 -0.05172514022928257    7    6    1    1
 -0.03872407259229269    7    6    2    1
 0.07432589956955543    7    6    2    2
 0.005355782829353209    7    6    3    1
 -0.008611613313712813    7    6    3    2
 0.01331318789310968    7    6    3    3
 -0.002239140042203216    7    6    4    1
 0.001493456314944959    7    6    4    2
 0.001834517862490601    7    6    4    3
 0.007780333994231507    7    6    4    4
 0.002772675489241069    7    6    5    1
 -0.0005412923519511161    7    6    5    2
 -0.01909095732027604    7    6    5    3
 0.02859437235015968    7    6    5    4
 0.03413496403884207    7    6    5    5
 0.00243388397060123    7    6    6    1
 0.001743076015570351    7    6    6    2
 0.008348367366691678    7    6    6    3
 0.0006918767058885271    7    6    6    4
 -0.0377807636895845    7    6    6    5
 -0.03724893829388329    7    6    6    6
 -0.0001178724296907717    7    6    7    1
 -0.005010022184134624    7    6    7    2
 0.006511867056768962    7    6    7    3
 0.005011964832032589    7    6    7    4
 -0.004711825481180744    7    6    7    5
 0.02659866598958458    7    6    7    6
 0.2553924150729738    7    7    1    1
 -0.1167256353963022    7    7    2    1
 0.6305029165067255    7    7    2    2
 0.01772873364487646    7    7    3    1
 -0.04859363909324815    7    7    3    2
 0.3212006747630727    7    7    3    3
 -0.006380497243301121    7    7    4    1
 0.003249790552391018    7    7    4    2
 -0.02490367589028556    7    7    4    3
 0.3463192866414319    7    7    4    4
 0.002956292040407839    7    7    5    1
 0.006333769238521754    7    7    5    2
 -0.06901949840119341    7    7    5    3
 0.09939856929738236    7    7    5    4
 0.4687924918264356    7    7    5    5
 -0.0009117483807711798    7    7    6    1
 -0.00239965584839519    7    7    6    2
 0.02965100656145632    7    7    6    3
 -0.01503205814378811    7    7    6    4
 -0.09098853699144353    7    7    6    5
 0.2718194086004448    7    7    6    6
 0.006213529041615193    7    7    7    1
 -0.02512326811103919    7    7    7    2
 0.02335108377997614    7    7    7    3
 0.03911328074024233    7    7    7    4
 0.005705458991472701    7    7    7    5
 0.07521532329728181    7    7    7    6
 0.635274794384483    7    7    7    7
 0.002905238759277047    8    1    1    1
 0.001622180191379054    8    1    2    1
 -0.001588058754739487    8    1    2    2
 -0.001478700485724677    8    1    3    1
 -0.001240171382372633    8    1    3    2
 -0.006678061588325027    8    1    3    3
 0.008426330277502234    8    1    4    1
 0.001870538880603884    8    1    4    2
 0.002636586902580295    8    1    4    3
 -0.009562787723185813    8    1    4    4
 -0.01267661671220206    8    1    5    1
 -0.004322980875321329    8    1    5    2
 -0.001553052732551069    8    1    5    3
 0.003222261451875682    8    1    5    4
 -0.0053734318287724    8    1    5    5
 -0.01165216886555462    8    1    6    1
 -0.005793176001522927    8    1    6    2
 0.00183706223337579    8    1    6    3
 -0.001460536312601502    8    1    6    4
 0.001116638122767314    8    1    6    5
 -0.002555150536180355    8    1    6    6
 -0.001464179343745649    8    1    7    1
 -0.003702000873229667    8    1    7    2
 0.0007871195003086838    8    1    7    3
 0.0005105593752862274    8    1    7    4
 -0.001684067891352009    8    1    7    5
 0.0001569046561435557    8    1    7    6
 -0.001295913062108032    8    1    7    7
 0.01762844811527085    8    1    8    1
 -0.003396022683616067    8    2    1    1
 0.0001496143035373716    8    2    2    1
 -0.003605974488240854    8    2    2    2
 -0.0002960405402330654    8    2    3    1
 -0.0005883851865598704    8    2    3    2
 -0.003078108526252149    8    2    3    3
 0.001033542532118093    8    2    4    1
 0.00576723419302516    8    2    4    2
 0.0006782125918056072    8    2    4    3
 -0.005536472549197155    8    2    4    4
 -0.004737444042208886    8    2    5    1
 0.005211965549351098    8    2    5    2
 -0.001235741392900666    8    2    5    3
 0.0007288217831027302    8    2    5    4
 -0.003108962060574302    8    2    5    5
 -0.003283430175698099    8    2    6    1
 0.007564443567461832    8    2    6    2
 0.0005746190937222527    8    2    6    3
 -0.0001570985712455796    8    2    6    4
 -0.001450260950653617    8    2    6    5
 -0.00484925872200141    8    2    6    6
 -0.004122514298281537    8    2    7    1
 0.009861714156260415    8    2    7    2
 -0.004529231389412325    8    2    7    3
 0.002045266016112158    8    2    7    4
 0.003744904756878744    8    2    7    5
 -0.002007555547665857    8    2    7    6
 -0.004059988573467896    8    2    7    7
 -0.01433291801622187    8    2    8    1
 0.06567086057285339    8    2    8    2
 -0.0006605141038638266    8    3    1    1
 -0.0001033794477131736    8    3    2    1
 -0.0004068599393757257    8    3    2    2
 5.084654163750514e-05    8    3    3    1
 -0.0004288048059718624    8    3    3    2
 -0.005207606922736175    8    3    3    3
 -0.0001517908233761251    8    3    4    1
 -0.003439222252876572    8    3    4    2
 -0.0141104599509044    8    3    4    3
 0.002687642261804815    8    3    4    4
 0.001653462746116703    8    3    5    1
 -0.0006884864258917328    8    3    5    2
 0.004240542589065358    8    3    5    3
 -0.003808850121211209    8    3    5    4
 0.001780380942961819    8    3    5    5
 0.002575479602457929    8    3    6    1
 0.0001539111373500419    8    3    6    2
 -0.0003631400852961585    8    3    6    3
 0.003001837082952593    8    3    6    4
 -0.002014318592759671    8    3    6    5
 0.002272641463572338    8    3    6    6
 0.0009652875788719215    8    3    7    1
 -0.005287030470903413    8    3    7    2
 -0.001462810802093381    8    3    7    3
 -0.001004050193769871    8    3    7    4
 0.0001651702841583679    8    3    7    5
 -0.0003203829292777634    8    3    7    6
 -0.0003444576981216086    8    3    7    7
 -8.255504984549864e-05    8    3    8    1
 0.002195787702981494    8    3    8    2
 0.03340809527107667    8    3    8    3
 0.02419366794895567    8    4    1    1
 0.004474983803000958    8    4    2    1
 0.008720621520235918    8    4    2    2
 -6.228901266518249e-05    8    4    3    1
 -0.006210951752978291    8    4    3    2
 -0.02958619430238447    8    4    3    3
 2.864365846445764e-05    8    4    4    1
 0.001222118640085906    8    4    4    2
 -0.006601773117445993    8    4    4    3
 -0.01996418786658714    8    4    4    4
 -0.002160431534665165    8    4    5    1
 0.002676987458186401    8    4    5    2
 -0.005942582798885159    8    4    5    3
 0.003966254862346893    8    4    5    4
 0.002260495518865542    8    4    5    5
 -0.00141133175303167    8    4    6    1
 -0.002108402473747968    8    4    6    2
 0.004366277766335002    8    4    6    3
 -0.007599611455844662    8    4    6    4
 0.01109004800478008    8    4    6    5
 0.01259900439909205    8    4    6    6
 0.0005897984550583601    8    4    7    1
 0.0001633010774928405    8    4    7    2
 0.001196656440173765    8    4    7    3
 0.004080648398829717    8    4    7    4
 0.0006765706128417061    8    4    7    5
 -0.000912016889513682    8    4    7    6
 0.007839568110615676    8    4    7    7
 0.001398242470137714    8    4    8    1
 -0.003197097325069502    8    4    8    2
 0.002486762103739613    8    4    8    3
 0.01935084769513519    8    4    8    4
 -0.03768745253058396    8    5    1    1
 -0.01695825029653627    8    5    2    1
 0.01822695414500975    8    5    2    2
 0.002065705856682005    8    5    3    1
 -0.0003401011973783515    8    5    3    2
 0.01618483676283271    8    5    3    3
 -0.0005327888299371468    8    5    4    1
 0.0005784640361166099    8    5    4    2
 0.001140129646270455    8    5    4    3
 0.01068089588248736    8    5    4    4
 0.0002040244658801478    8    5    5    1
 0.0003950272410721319    8    5    5    2
 -0.003031090788367364    8    5    5    3
 0.00985347598361175    8    5    5    4
 0.009313673816774662    8    5    5    5
 -0.001130182839342092    8    5    6    1
 6.553852931920576e-05    8    5    6    2
 -0.001023024166463828    8    5    6    3
 0.006961586839350251    8    5    6    4
 -0.01819649223453723    8    5    6    5
 -0.02456491359275273    8    5    6    6
 -0.001887332930555511    8    5    7    1
 0.005364440132716289    8    5    7    2
 -0.0006112571198472625    8    5    7    3
 0.0008502899605671305    8    5    7    4
 0.003046620838340367    8    5    7    5
 0.0066974670919595    8    5    7    6
 0.01826049758984225    8    5    7    7
 0.001728150566796637    8    5    8    1
 -0.00638599068651366    8    5    8    2
 -0.003709811198026748    8    5    8    3
 0.00221410733475952    8    5    8    4
 0.01953296098827325    8    5    8    5
 -0.03549311774685353    8    6    1    1
 -0.01903550156794006    8    6    2    1
 0.02706500678694128    8    6    2    2
 0.002354720638860104    8    6    3    1
 -0.002372554558338624    8    6    3    2
 0.01027212671218251    8    6    3    3
 0.0006001472760398913    8    6    4    1
 0.001664909374058163    8    6    4    2
 0.008913639275689413    8    6    4    3
 0.0003531331824968493    8    6    4    4
 -0.001587543213800258    8    6    5    1
 -0.001080394194498322    8    6    5    2
 -0.008810367901819331    8    6    5    3
 0.01654753933647297    8    6    5    4
 0.006512673078608263    8    6    5    5
 -0.003780473959940905    8    6    6    1
 0.0001226671633337649    8    6    6    2
 0.004750886406962406    8    6    6    3
 0.002253958487565655    8    6    6    4
 -0.02026892027147538    8    6    6    5
 -0.02656516341964494    8    6    6    6
 -0.0002410193044239541    8    6    7    1
 -0.001105226540158846    8    6    7    2
 -0.000433126263129556    8    6    7    3
 0.001941102350372213    8    6    7    4
 0.0004407830628024819    8    6    7    5
 0.009837387853931226    8    6    7    6
 0.02571630728565218    8    6    7    7
 0.001132302326460725    8    6    8    1
 0.00169087245722601    8    6    8    2
 0.0007014194708922423    8    6    8    3
 -0.001231323823835195    8    6    8    4
 0.0001199498453401018    8    6    8    5
 0.01186436237480585    8    6    8    6
 -0.005484128110090749    8    7    1    1
 -0.01091738609334933    8    7    2    1
 0.02964698211629012    8    7    2    2
 0.002210931648379209    8    7    3    1
 -0.008217152021972967    8    7    3    2
 -0.01087076270188307    8    7    3    3
 -0.00112161603281234    8    7    4    1
 0.002642367141965686    8    7    4    2
 -0.007037721077415161    8    7    4    3
 -0.00333042991098461    8    7    4    4
 -0.002232215966071105    8    7    5    1
 0.006504212336413123    8    7    5    2
 -0.006980248738134979    8    7    5    3
 0.00878113162886913    8    7    5    4
 0.01284237346536301    8    7    5    5
 -0.000664815414147108    8    7    6    1
 -0.003589357350347003    8    7    6    2
 0.002545206545305293    8    7    6    3
 -0.002559802280226724    8    7    6    4
 -0.005798153862737972    8    7    6    5
 -0.001672457885800414    8    7    6    6
 0.001005410061722355    8    7    7    1
 -0.002264919257681074    8    7    7    2
 0.002770891334053636    8    7    7    3
 0.006690291602112684    8    7    7    4
 0.004106071813150255    8    7    7    5
 0.007909205479713211    8    7    7    6
 0.03140620152448824    8    7    7    7
 0.001157442537744098    8    7    8    1
 -0.004901803496065376    8    7    8    2
 0.001212443277913491    8    7    8    3
 0.001327532276145249    8    7    8    4
 0.0006051638256647507    8    7    8    5
 0.004717793956315098    8    7    8    6
 0.01961615697295257    8    7    8    7
 0.2617505001069882    8    8    1    1
 -0.06367201666544869    8    8    2    1
 0.4672659598635966    8    8    2    2
 0.006830104743831823    8    8    3    1
 -0.001298817197873082    8    8    3    2
 0.4017954750731387    8    8    3    3
 -0.001928294206678653    8    8    4    1
 -0.01201238160401692    8    8    4    2
 0.01283613280355133    8    8    4    3
 0.3848215902413082    8    8    4    4
 0.01653574747958672    8    8    5    1
 -0.02727824825181664    8    8    5    2
 -0.02471164046258276    8    8    5    3
 0.04798562679262262    8    8    5    4
 0.4025370897269394    8    8    5    5
 0.002928444940779449    8    8    6    1
 0.01359576317730266    8    8    6    2
 0.01077578708531502    8    8    6    3
 0.005352814975292367    8    8    6    4
 -0.06550146493447599    8    8    6    5
 0.2766179573855013    8    8    6    6
 -0.0001780731208314696    8    8    7    1
 -0.004786239912983711    8    8    7    2
 0.004152338828916757    8    8    7    3
 0.001856708123017063    8    8    7    4
 -0.006626199338070736    8    8    7    5
 0.03625151199107474    8    8    7    6
 0.4327966870031157    8    8    7    7
 -0.002476563351695327    8    8    8    1
 -0.00668193511677031    8    8    8    2
 -0.001385238676352991    8    8    8    3
 -0.005512832500553776    8    8    8    4
 0.01242317243175695    8    8    8    5
 0.01648025651746135    8    8    8    6
 0.009143017488390807    8    8    8    7
 0.4190334716092452    8    8    8    8
 0.005144088982794603    9    1    1    1
 0.004300063820163152    9    1    2    1
 -0.007108423205094722    9    1    2    2
 -0.003342310076445952    9    1    3    1
 -0.002103476919509652    9    1    3    2
 -0.01581253928338098    9    1    3    3
 0.0164831606776198    9    1    4    1
 0.005744909637086115    9    1    4    2
 0.006079759906650312    9    1    4    3
 -0.02317264791464984    9    1    4    4
 -0.01639733974875492    9    1    5    1
 -0.00462581945777955    9    1    5    2
 -0.003989869792990349    9    1    5    3
 0.007030408952895061    9    1    5    4
 -0.01527618278335487    9    1    5    5
 0.01503087584204328    9    1    6    1
 0.005331856871560604    9    1    6    2
 0.001597684333604234    9    1    6    3
 -0.0002835346064541106    9    1    6    4
 -0.003125489784915628    9    1    6    5
 -0.01626396859068923    9    1    6    6
 -0.0153387824909358    9    1    7    1
 -0.007261485343948974    9    1    7    2
 7.600509196341087e-05    9    1    7    3
 0.001217718332689049    9    1    7    4
 -0.0003622111063266909    9    1    7    5
 0.0008976129670951283    9    1    7    6
 -0.007095305085531603    9    1    7    7
 0.03080852366341593    9    1    8    1
 0.01893161571232696    9    1    8    2
 -0.0005229767189705477    9    1    8    3
 -1.523362389111328e-05    9    1    8    4
 -0.001699364900812639    9    1    8    5
 0.003535439110169509    9    1    8    6
 -0.001991141671727727    9    1    8    7
 -0.009125585914043504    9    1    8    8
 0.1133503527203796    9    1    9    1
 0.002577591369018647    9    2    1    1
 0.002617565929386317    9    2    2    1
 -0.005496093935798855    9    2    2    2
 -0.0005368811454631489    9    2    3    1
 -0.002998685231608966    9    2    3    2
 -0.009335206765399617    9    2    3    3
 0.003491807351461286    9    2    4    1
 0.005635166070077351    9    2    4    2