 &FCI NORB=  28,NELEC=34,MS2=0,
  ORBSYM=1,1,1,1,1,1,1,1,1,1,1,1,1,1,1,1,1,1,1,1,1,1,1,1,1,1,1,1,
  ISYM=1,
 &END
 0.9816850409659573    1    1    1    1
 0.003755137020658158    2    1    1    1
 0.03773689685931119    2    1    2    1
 0.9190497248233853    2    2    1    1
 0.004339583821608452    2    2    2    1
 1.007432422662151    2    2    2    2
 -0.002593152410616942    3    1    1    1
 0.001014979588645013    3    1    2    1
 0.006727625647023772    3    1    2    2
 0.03750330631535043    3    1    3    1
 -0.0005353988622798455    3    2    1    1
 -0.005307655191686457    3    2    2    1
 0.0008348666673346512    3    2    2    2
 -0.0001124961386427571    3    2    3    1
 0.05083760566657403    3    2    3    2
 0.9133272287069011    3    3    1    1
 0.002492394090063045    3    3    2    1
 0.9002155119893933    3    3    2    2
 -0.003212731618348685    3    3    3    1
 0.0006168942476168053    3    3    3    2
 0.9967187568983479    3    3    3    3
 0.001084633324130225    4    1    1    1
 -0.006230138587599734    4    1    2    1
 -0.002522049100668304    4    1    2    2
 -0.003536915107240292    4    1    3    1
 0.02251614036260752    4    1    3    2
 0.001355746442196475    4    1    3    3
 0.05628489065266169    4    1    4    1
 0.01130182557245483    4    2    1    1
 0.001721979181873002    4    2    2    1
 0.001737866054780426    4    2    2    2
 -0.008589360047875506    4    2    3    1
 -0.002472140956751568    4    2    3    2
 -0.003356242369868066    4    2    3    3
 0.001899340212112152    4    2    4    1
 0.04916579030509443    4    2    4    2
 0.008589792631811515    4    3    1    1
 -0.01129340778138516    4    3    2    1
 0.007935769357350891    4    3    2    2
 -0.0005395852717129273    4    3    3    1
 0.00250328309495291    4    3    3    2
 0.003534281867024811    4    3    3    3
 0.003383889627763462    4    3    4    1
 0.0003797559242837457    4    3    4    2
 0.05141464179888035    4    3    4    3
 0.8758557286869406    4    4    1    1
 0.0002060271182409163    4    4    2    1
 0.8941294535377668    4    4    2    2
 -0.007836134103619297    4    4    3    1
 -0.0004892660842091886    4    4    3    2
 0.884637187119534    4    4    3    3
 0.0007535013656051219    4    4    4    1
 0.001427190022853289    4    4    4    2
 0.003077596601952762    4    4    4    3
 0.9785241542055465    4    4    4    4
 0.0005973062784351332    5    1    1    1
 -0.002714769390790893    5    1    2    1
 -0.01653842165487515    5    1    2    2
 -0.002636332623890339    5    1    3    1
 -0.002064719793193373    5    1    3    2
 0.02159338889959635    5    1    3    3
 -0.001292215328385707    5    1    4    1
 -0.005919874926712792    5    1    4    2
 0.002295101936131819    5    1    4    3
 -0.002172731122583041    5    1    4    4
 0.04099229130301428    5    1    5    1
 0.004561655145504241    5    2    1    1
 0.007372429769911842    5    2    2    1
 0.0008638676898199762    5    2    2    2
 0.001288405559616481    5    2    3    1
 0.004159838523961188    5    2    3    2
 0.00566267912905128    5    2    3    3
 0.004184977909468577    5    2    4    1
 0.001074681053947322    5    2    4    2
 -0.01395157046263374    5    2    4    3
 -0.009742196278903549    5    2    4    4
 -0.001407371020479732    5    2    5    1
 0.03552009465528385    5    2    5    2
 0.003179333706105918    5    3    1    1
 0.0002988093496177863    5    3    2    1
 -0.008864422436490552    5    3    2    2
 -0.008928694773168232    5    3    3    1
 -0.002848477568787131    5    3    3    2
 -0.0005306916979218382    5    3    3    3
 0.001335274609112318    5    3    4    1
 0.01358360453434266    5    3    4    2
 4.310042135226289e-05    5    3    4    3
 0.003656091437116895    5    3    4    4
 0.001247925774592161    5    3    5    1
 -0.0008398475634727141    5    3    5    2
 0.0333283206730093    5    3    5    3
 0.001655186327456916    5    4    1    1
 0.001252074234710176    5    4    2    1
 -0.002137698477443332    5    4    2    2
 -0.002725960421744145    5    4    3    1
 0.0002422763846887058    5    4    3    2
 -0.0005136534993126236    5    4    3    3
 0.001680625519536709    5    4    4    1
 0.005098400359208726    5    4    4    2
 -0.002215531389289236    5    4    4    3
 -0.0003335673098695457    5    4    4    4
 -0.0008753744772666604    5    4    5    1
 0.002104332199124767    5    4    5    2
 0.003987720750763189    5    4    5    3
 0.02262126978725071    5    4    5    4
 0.7141777686375289    5    5    1    1
 0.003793155292024277    5    5    2    1
 0.7264391678276999    5    5    2    2
 -0.003929737939397897    5    5    3    1
 0.002042212659655278    5    5    3    2
 0.7282913487434886    5    5    3    3
 0.002033278174124408    5    5    4    1
 -0.003592841542461393    5    5    4    2
 -0.006395651701067356    5    5    4    3
 0.7453215507546028    5    5    4    4
 0.00215075377452582    5    5    5    1
 -4.103726240344344e-05    5    5    5    2
 -4.418465277384806e-05    5    5    5    3
 -0.0003860214517840063    5    5    5    4
 0.6630506868245072    5    5    5    5
 -0.002755502725606004    6    1    1    1
 2.073126075959048e-05    6    1    2    1
 -0.00249108854398605    6    1    2    2
 -1.122491416788275e-05    6    1    3    1
 1.527202353967407e-05    6    1    3    2
 -0.002485430808491557    6    1    3    3
 9.268999274969003e-06    6    1    4    1
 -7.105539891782495e-05    6    1    4    2
 -6.765369061312917e-05    6    1    4    3
 -0.002207750558301483    6    1    4    4
 -1.638264090875964e-05    6    1    5    1
 -2.449352184349013e-05    6    1    5    2
 -2.21932579703344e-05    6    1    5    3
 -1.024526050935495e-05    6    1    5    4
 -0.001742613051580587    6    1    5    5
 2.480539375373288e-05    6    1    6    1
 0.0006477577338114905    6    2    1    1
 -0.0001491957953981736    6    2    2    1
 0.0007645925192449642    6    2    2    2
 1.607529546682017e-05    6    2    3    1
 -3.434375892449576e-05    6    2    3    2
 0.0005924699105833677    6    2    3    3
 -3.261340631961232e-05    6    2    4    1
 -5.907413687717101e-06    6    2    4    2
 0.0001199659370885576    6    2    4    3
 0.0006582691096465705    6    2    4    4
 -2.221459710166018e-05    6    2    5    1
 -9.966001824401451e-05    6    2    5    2
 -1.91434010507359e-05    6    2    5    3
 -2.143984740530471e-05    6    2    5    4
 0.0004627970383460454    6    2    5    5
 -5.745876890025795e-06    6    2    6    1
 4.921516920341888e-06    6    2    6    2
 -0.0003811697080214813    6    3    1    1
 4.91271438091129e-06    6    3    2    1
 -0.0004309020235563012    6    3    2    2
 -0.0001641170748277745    6    3    3    1
 3.277006832894022e-06    6    3    3    2
 -0.0004402573713372434    6    3    3    3
 3.274246684388692e-06    6    3    4    1
 9.77231552954738e-05    6    3    4    2
 -8.602612150859235e-06    6    3    4    3
 -0.0002899827882313392    6    3    4    4
 -1.82627620327655e-05    6    3    5    1
 -1.704143916916238e-05    6    3    5    2
 8.795288807911131e-05    6    3    5    3
 2.880749443120651e-05    6    3    5    4
 -0.000268711279882759    6    3    5    5
 4.911204802698476e-06    6    3    6    1
 -2.219427886053331e-06    6    3    6    2
 5.812366763449412e-06    6    3    6    3
 0.0001278929435340309    6    4    1    1
 -1.829123688665359e-05    6    4    2    1
 0.0001149448451701074    6    4    2    2
 -2.258996964198255e-05    6    4    3    1
 4.476398014594972e-06    6    4    3    2
 9.400172872753542e-05    6    4    3    3
 -7.593431014402669e-05    6    4    4    1
 6.045318577167727e-05    6    4    4    2
 2.519033449249124e-05    6    4    4    3
 0.0001376007098041031    6    4    4    4
 -1.003675484262609e-05    6    4    5    1
 -2.457963501007276e-05    6    4    5    2
 2.840029553158072e-05    6    4    5    3
 4.624886850406816e-06    6    4    5    4
 7.800622626387665e-05    6    4    5    5
 -1.086615141361212e-06    6    4    6    1
 1.548777220170472e-06    6    4    6    2
 -6.303555330621285e-07    6    4    6    3
 1.809654913246324e-06    6    4    6    4
 -5.423215322783033e-05    6    5    1    1
 -5.612541040184252e-06    6    5    2    1
 -7.501583696301751e-05    6    5    2    2
 -5.879197638465615e-06    6    5    3    1
 -4.972428916941443e-06    6    5    3    2
 -3.135300337500057e-05    6    5    3    3
 -2.439021994640821e-06    6    5    4    1
 -3.84067464865028e-06    6    5    4    2
 5.406119073582498e-06    6    5    4    3
 -4.41810999635259e-05    6    5    4    4
 -4.412648136800167e-05    6    5    5    1
 1.058424035079965e-05    6    5    5    2
 -1.797484171808355e-07    6    5    5    3
 1.394769876600751e-06    6    5    5    4
 -2.95617154826795e-05    6    5    5    5
 1.559920179169911e-07    6    5    6    1
 -3.821115958086276e-07    6    5    6    2
 1.045248884228955e-06    6    5    6    3
 -2.814304755119053e-07    6    5    6    4
 1.646313599444594e-06    6    5    6    5
 0.1428632897452324    6    6    1    1
 -9.540510816663864e-05    6    6    2    1
 0.1419938744743114    6    6    2    2
 0.0001580253207802758    6    6    3    1
 -0.000177891594049464    6    6    3    2
 0.1421876609965225    6    6    3    3
 1.071664369405013e-05    6    6    4    1
 0.0006798744596211558    6    6    4    2
 0.0002932866516355546    6    6    4    3
 0.1411300150797322    6    6    4    4
 0.0001991462618189479    6    6    5    1
 6.296986665382419e-05    6    6    5    2
 0.0003873082930587008    6    6    5    3
 0.00018726043805778    6    6    5    4
 0.1387532598016758    6    6    5    5
 0.001521711282944427    6    6    6    1
 -0.0004979259434361172    6    6    6    2
 0.0005309871135839965    6    6    6    3
 -0.0001198904661900979    6    6    6    4
 8.372167915760009e-05    6    6    6    5
 0.5216831469340346    6    6    6    6
 0.0002454891454215413    7    1    1    1
 -6.153626663604144e-06    7    1    2    1
 0.0002441051344782518    7    1    2    2
 1.172455398457936e-05    7    1    3    1
 3.689991584932763e-06    7    1    3    2
 0.0002295729966802024    7    1    3    3
 3.336247607509283e-06    7    1    4    1
 -4.118329423363227e-06    7    1    4    2
 1.661092410195805e-06    7    1    4    3
 0.0002424955232956962    7    1    4    4
 -1.016132014991999e-05    7    1    5    1
 -2.556469801111508e-06    7    1    5    2
 -4.21962014227855e-06    7    1    5    3
 -1.744417672683882e-06    7    1    5    4
 0.0002019055115580021    7    1    5    5
 -4.960387463025213e-06    7    1    6    1
 1.727584906576168e-06    7    1    6    2
 -2.148168577689508e-06    7    1    6    3
 6.88120403017137e-07    7    1    6    4
 2.389039571169577e-07    7    1    6    5
 -0.0001937826994883083    7    1    6    6
 1.135177336349254e-05    7    1    7    1
 -0.0001612976444454886    7    2    1    1
 4.89487673343846e-07    7    2    2    1
 -0.0001698715669186412    7    2    2    2
 6.312464930999181e-07    7    2    3    1
 1.013229367565434e-05    7    2    3    2
 -0.0001644757328144767    7    2    3    3
 -7.921505271427669e-07    7    2    4    1
 -8.651236428533901e-07    7    2    4    2
 1.161985380170819e-05    7    2    4    3
 -0.0001493146294023339    7    2    4    4
 -1.109564208830794e-06    7    2    5    1
 -1.70656176848312e-05    7    2    5    2
 -9.808698264552453e-07    7    2    5    3
 -1.878566282485948e-06    7    2    5    4
 -0.0001273092961267192    7    2    5    5
 2.043571736082937e-06    7    2    6    1
 -1.709741476013232e-07    7    2    6    2
 -5.263557501047775e-07    7    2    6    3
 4.761393921697769e-07    7    2    6    4
 -6.094887222983286e-07    7    2    6    5
 5.403980976128736e-05    7    2    6    6
 -2.30292529935941e-06    7    2    7    1
 2.117019508236003e-06    7    2    7    2
 0.0002744032085944728    7    3    1    1
 3.864080679931986e-06    7    3    2    1
 0.0002691878499948772    7    3    2    2
 4.134756616321049e-06    7    3    3    1
 -1.652852893330381e-05    7    3    3    2
 0.000298466052953182    7    3    3    3
 -9.685762476098687e-06    7    3    4    1
 5.52881946878036e-06    7    3    4    2
 7.218679298436895e-07    7    3    4    3
 0.0002693101764359394    7    3    4    4
 5.359990079811563e-06    7    3    5    1
 -1.272762750637849e-06    7    3    5    2
 8.480167150412869e-07    7    3    5    3
 1.13186236520118e-06    7    3    5    4
 0.0002164740599746356    7    3    5    5
 -2.892306833537753e-06    7    3    6    1
 -4.494717374832966e-07    7    3    6    2
 1.391888066760823e-06    7    3    6    3
 -4.896800228348085e-07    7    3    6    4
 1.127769874621984e-06    7    3    6    5
 4.717983333885829e-05    7    3    6    6
 2.766123528686541e-06    7    3    7    1
 -1.477643723090728e-06    7    3    7    2
 4.218110840120828e-06    7    3    7    3
 2.262905869401824e-05    7    4    1    1
 -1.405824481875511e-05    7    4    2    1
 2.282798311914264e-05    7    4    2    2
 -3.035438281238292e-06    7    4    3    1
 2.234599180213978e-05    7    4    3    2
 2.221823621841352e-05    7    4    3    3
 3.341564373394992e-05    7    4    4    1
 -6.225154002727321e-06    7    4    4    2
 2.862197192000697e-05    7    4    4    3
 3.035945372427321e-05    7    4    4    4
 2.193038341833224e-07    7    4    5    1
 -7.568668763006388e-06    7    4    5    2
 3.425171388149311e-08    7    4    5    3
 -5.533583348725905e-06    7    4    5    4
 1.539648056503086e-05    7    4    5    5
 6.005570493668705e-07    7    4    6    1
 5.983313399336566e-07    7    4    6    2
 -5.089445392735698e-07    7    4    6    3
 9.634354288128223e-07    7    4    6    4
 -2.390452790026362e-07    7    4    6    5
 1.489491553068376e-05    7    4    6    6
 -4.223877573063429e-07    7    4    7    1
 9.093612864551672e-07    7    4    7    2
 -7.873338712111592e-07    7    4    7    3
 1.357967236170695e-06    7    4    7    4
 -0.0001614707013632479    7    5    1    1
 -1.010596120274225e-05    7    5    2    1
 -0.0002012236293050789    7    5    2    2
 -1.04810175745776e-05    7    5    3    1
 -8.871026867778629e-06    7    5    3    2
 -0.0001300873154053786    7    5    3    3
 -4.53465997078349e-06    7    5    4    1
 -1.447538791736071e-06    7    5    4    2
 1.323032532608172e-05    7    5    4    3
 -0.0001609965429401783    7    5    4    4
 4.840473667552125e-05    7    5    5    1
 -1.821539719477653e-05    7    5    5    2
 2.172498525122152e-05    7    5    5    3
 8.609842314875318e-08    7    5    5    4
 -0.0001185959199462788    7    5    5    5
 9.026796263471965e-07    7    5    6    1
 -8.494759515184093e-07    7    5    6    2
 1.309425195584689e-06    7    5    6    3
 -2.700517019762192e-07    7    5    6    4
 8.435165610092368e-07    7    5    6    5
 0.0001286411347342361    7    5    6    6
 -3.945489723376082e-07    7    5    7    1
 -2.075985103247493e-07    7    5    7    2
 8.98314938440226e-07    7    5    7    3
 -2.561245927772055e-07    7    5    7    4
 1.581832947289552e-06    7    5    7    5
 0.005678262622100487    7    6    1    1
 6.88686281351729e-05    7    6    2    1
 0.005449111533445279    7    6    2    2
 -0.0004565375726015531    7    6    3    1
 -6.208553847313406e-05    7    6    3    2
 0.005653189475786256    7    6    3    3
 -6.754490586561158e-06    7    6    4    1
 0.0003178332431622354    7    6    4    2
 -8.532022048077172e-05    7    6    4    3
 0.006034084823904434    7    6    4    4
 4.166792844418157e-05    7    6    5    1
 -7.02735803550002e-05    7    6    5    2
 0.0003016780908701268    7    6    5    3
 0.0001299542791350848    7    6    5    4
 0.005760049557473479    7    6    5    5
 -0.0001821924890880663    7    6    6    1
 3.920420806897279e-05    7    6    6    2
 6.012852087190768e-05    7    6    6    3
 1.678485094722126e-05    7    6    6    4
 9.099838017243836e-05    7    6    6    5
 0.02351103698147702    7    6    6    6
 0.0009972360557135573    7    6    7    1
 -0.0003154668061587373    7    6    7    2
 0.000368578715252105    7    6    7    3
 -8.420250789109573e-05    7    6    7    4
 1.423685094231741e-05    7    6    7    5
 0.2603088419356758    7    6    7    6
 0.1395524913696541    7    7    1    1
 -0.0001050584307334679    7    7    2    1
 0.1387493859230979    7    7    2    2
 0.0002311468577067792    7    7    3    1
 -0.0001623899935041047    7    7    3    2
 0.1389329869956182    7    7    3    3
 1.159577946520027e-05    7    7    4    1
 0.0005898613270895882    7    7    4    2
 0.0002884412696345083    7    7    4    3
 0.1378643281956765    7    7    4    4
 0.000195854421281047    7    7    5    1
 6.729488201709247e-05    7    7    5    2
 0.000322932778830963    7    7    5    3
 0.0001551586970982679    7    7    5    4
 0.135685512891836    7    7    5    5
 0.001503662831592756    7    7    6    1
 -0.0004820559069080854    7    7    6    2
 0.0004934572693102747    7    7    6    3
 -0.0001149385607943643    7    7    6    4
 5.586826576742254e-05    7    7    6    5
 0.5148475612541391    7    7    6    6
 -0.0003883694663982321    7    7    7    1
 0.0001151348932136795    7    7    7    2
 -2.768174798009615e-05    7    7    7    3
 2.839312259186877e-05    7    7    7    4
 0.0001225065570667344    7    7    7    5
 -0.02434063627387966    7    7    7    6
 0.5223925918231523    7    7    7    7
 -0.0001492095066266907    8    1    1    1
 -0.0001497297214696169    8    1    2    1
 0.002083439841957818    8    1    2    2
 8.825327984740294e-05    8    1    3    1
 0.0005437109525867218    8    1    3    2
 0.0009681149768174869    8    1    3    3
 0.0002848829772808593    8    1    4    1
 -0.001475920959879484    8    1    4    2
 -0.0008316641619188697    8    1    4    3
 0.00657674069693961    8    1    4    4
 -0.000729765530434747    8    1    5    1
 -0.0007486092363500369    8    1    5    2
 -0.0007010311291938708    8    1    5    3
 -0.000360743488325321    8    1    5    4
 0.006900871348724191    8    1    5    5
 1.951138607398414e-05    8    1    6    1
 2.687624575628002e-06    8    1    6    2
 8.980699367567343e-07    8    1    6    3
 -2.022024554452617e-06    8    1    6    4
 4.533986084426711e-07    8    1    6    5
 -0.0004205284055705711    8    1    6    6
 5.540951141387498e-06    8    1    7    1
 -1.494235606193731e-07    8    1    7    2
 1.186578019598831e-06    8    1    7    3
 9.364293485072603e-07    8    1    7    4
 -1.175828523359364e-06    8    1    7    5
 -0.0003089712279803974    8    1    7    6
 -0.0003635456842587595    8    1    7    7
 0.001448453931858908    8    1    8    1
 -0.001312823815145819    8    2    1    1
 -0.001252019016863016    8    2    2    1
 0.0006125696158647206    8    2    2    2
 0.0005224577203826199    8    2    3    1
 -0.001419673361290182    8    2    3    2
 -0.002895358661017296    8    2    3    3
 -0.00178155824229525    8    2    4    1
 -0.0004795486832229931    8    2    4    2
 0.003247598892621614    8    2    4    3
 0.0002099098782761718    8    2    4    4
 -0.0007483494951410778    8    2    5    1
 -0.003583387198922668    8    2    5    2
 -0.0006010812059219434    8    2    5    3
 -0.0006646981299395416    8    2    5    4
 -0.002141423652344494    8    2    5    5
 2.577325043996966e-06    8    2    6    1
 2.543396850575554e-05    8    2    6    2
 -2.075160983958121e-06    8    2    6    3
 5.860453457301047e-06    8    2    6    4
 -1.121019897161669e-07    8    2    6    5
 5.349463407297098e-05    8    2    6    6
 2.007630518802313e-07    8    2    7    1
 5.733809349822968e-06    8    2    7    2
 -2.151709737801636e-07    8    2    7    3
 2.784118097909252e-07    8    2    7    4
 1.912320811616873e-07    8    2    7    5
 3.612544843827435e-05    8    2    7    6
 5.107321425018642e-05    8    2    7    7
 1.864585884144227e-05    8    2    8    1
 0.001597003730750188    8    2    8    2
 -0.0006287691554235864    8    3    1    1
 0.0006256256296852029    8    3    2    1
 -0.001882027272925307    8    3    2    2
 -0.001733867795946859    8    3    3    1
 -0.001980911593916983    8    3    3    2
 -0.002125576073686624    8    3    3    3
 -0.00129791218540639    8    3    4    1
 0.003096337184549564    8    3    4    2
 -0.0005391713560729226    8    3    4    3
 0.001276150203727239    8    3    4    4
 -0.0006748135370149194    8    3    5    1
 -0.0006026847011500584    8    3    5    2
 0.002627708645634844    8    3    5    3
 0.0008952299431860697    8    3    5    4
 0.000529390243627406    8    3    5    5
 7.256275715985497e-06    8    3    6    1
 -4.339954763020069e-06    8    3    6    2
 2.25251581977986e-05    8    3    6    3
 6.637088951374354e-06    8    3    6    4
 1.06896973254704e-06    8    3    6    5
 6.738189470285072e-05    8    3    6    6
 2.1516275938889e-07    8    3    7    1
 1.883324808171077e-09    8    3    7    2
 3.651149082305179e-06    8    3    7    3
 -3.632134907506548e-06    8    3    7    4
 4.16669760437314e-06    8    3    7    5
 0.0003140144609837472    8    3    7    6
 1.258125115012123e-05    8    3    7    7
 4.876839524397365e-05    8    3    8    1
 5.058431037421101e-05    8    3    8    2
 0.001662295724912106    8    3    8    3
 0.0009389365045605529    8    4    1    1
 -0.002000429933451957    8    4    2    1
 0.0002113000083137258    8    4    2    2
 -0.001091515266404415    8    4    3    1
 0.003944723989478122    8    4    3    2
 0.0002183098779724498    8    4    3    3
 0.004935981714803436    8    4    4    1
 0.000996149745386362    8    4    4    2
 0.002425325378271746    8    4    4    3
 0.001489936397688822    8    4    4    4
 -0.0003642052768454622    8    4    5    1
 -0.0006966611077689951    8    4    5    2
 0.0009050672510438753    8    4    5    3
 -1.960760468066929e-05    8    4    5    4
 0.000217791565242735    8    4    5    5
 -4.193354810921521e-06    8    4    6    1
 8.221332266881965e-06    8    4    6    2
 7.05823160390464e-06    8    4    6    3
 2.5644712065294e-06    8    4    6    4
 8.708339397964335e-08    8    4    6    5
 -3.406520953781779e-05    8    4    6    6
 8.062348075827931e-07    8    4    7    1
 7.447922635638135e-07    8    4    7    2
 -3.708600393251431e-06    8    4    7    3
 1.297069088238286e-05    8    4    7    4
 2.919313118460566e-07    8    4    7    5
 6.294036783148041e-05    8    4    7    6
 -4.550198123560217e-05    8    4    7    7
 3.05272937451194e-05    8    4    8    1
 -0.0001852172202166531    8    4    8    2
 -0.0004138809226814521    8    4    8    3
 0.0026754314843062    8    4    8    4
 -0.002345966549239835    8    5    1    1
 -0.001838283575152007    8    5    2    1
 -0.009249484087359264    8    5    2    2
 -0.001682608264768769    8    5    3    1
 -0.001462211169313144    8    5    3    2
 0.005399526338128406    8    5    3    3
 -0.0008705076878600061    8    5    4    1
 -0.001531712696182248    8    5    4    2
 0.002276840047725209    8    5    4    3
 -0.001147039905678298    8    5    4    4
 0.009107898710368059    8    5    5    1
 -0.002597504235451756    8    5    5    2
 0.001874908468843375    8    5    5    3
 -0.0004879134018609121    8    5    5    4
 0.004925433846826963    8    5    5    5
 2.393011586753759e-06    8    5    6    1
 5.729487252956955e-07    8    5    6    2
 -5.18501607541413e-07    8    5    6    3
 4.663545097157237e-08    8    5    6    4
 5.409406460816718e-05    8    5    6    5
 3.287877574420807e-06    8    5    6    6
 -1.749842441391887e-06    8    5    7    1
 1.022954592156154e-06    8    5    7    2
 6.887052122643431e-06    8    5    7    3
 1.938792097750096e-06    8    5    7    4
 0.0001181919598566236    8    5    7    5
 6.605079323654725e-05    8    5    7    6
 5.333560110804589e-05    8    5    7    7
 0.0002650033271822641    8    5    8    1
 -9.056082848576876e-05    8    5    8    2
 0.0003250438176407293    8    5    8    3
 -2.893476996423516e-05    8    5    8    4
 0.02561601300948178    8    5    8    5
 0.0006484091377497388    8    6    1    1
 -1.764478062524516e-06    8    6    2    1
 0.0006485390570912823    8    6    2    2
 1.089188480571788e-05    8    6    3    1
 -8.74380763662325e-06    8    6    3    2
 0.0006367296924643033    8    6    3    3
 -8.489415839659225e-06    8    6    4    1
 6.480296025391031e-06    8    6    4    2
 2.352296819834144e-05    8    6    4    3
 0.0005741012485631806    8    6    4    4
 4.055582862080853e-06    8    6    5    1
 -2.432057437389039e-06    8    6    5    2
 -7.083421761075784e-07    8    6    5    3
 -2.452425474048872e-06    8    6    5    4
 0.0005322343857685445    8    6    5    5
 -1.146981301122741e-05    8    6    6    1
 4.59544392997311e-06    8    6    6    2
 -4.057544021935429e-06    8    6    6    3
 4.919100242087998e-07    8    6    6    4
 -1.588344438413838e-06    8    6    6    5
 -0.001513532866975335    8    6    6    6
 -5.654452645331275e-06    8    6    7    1
 1.115373238717594e-06    8    6    7    2
 -1.11923204453055e-06    8    6    7    3
 2.029068482982052e-07    8    6    7    4
 -1.258073902124512e-06    8    6    7    5
 -0.0007811026971297428    8    6    7    6
 -0.0005188906890692189    8    6    7    7
 -2.99775062646406e-07    8    6    8    1
 2.81597022890795e-06    8    6    8    2
 -8.348611107556305e-06    8    6    8    3
 5.313563359849284e-07    8    6    8    4
 1.735822169288788e-05    8    6    8    5
 0.000171655192998171    8    6    8    6
 0.0008767241209166146    8    7    1    1
 7.374766157778831e-06    8    7    2    1
 0.000901355076607812    8    7    2    2
 -8.686692264832787e-06    8    7    3    1
 4.290655882807965e-06    8    7    3    2
 0.0008905483326006867    8    7    3    3
 3.38576290604223e-06    8    7    4    1
 -2.289035450357523e-06    8    7    4    2
 -1.47948187376738e-05    8    7    4    3
 0.0009359190911136122    8    7    4    4
 -5.01528085634266e-06    8    7    5    1
 9.230856002693192e-07    8    7    5    2
 2.841522924552876e-06    8    7    5    3
 6.138517219584566e-07    8    7    5    4
 0.0009226632346165049    8    7    5    5
 -1.185831583198948e-05    8    7    6    1
 3.150043829227948e-06    8    7    6    2
 -2.306547274580567e-06    8    7    6    3
 5.871681165777604e-07    8    7    6    4
 -2.211682033370112e-07    8    7    6    5
 -0.001151193343046224    8    7    6    6
 6.634986046862804e-06    8    7    7    1
 -1.434052856527559e-06    8    7    7    2
 1.014303897403743e-06    8    7    7    3
 -2.394660007223534e-07    8    7    7    4
 -1.166416591742367e-06    8    7    7    5
 0.002427250555121388    8    7    7    6
 -0.001604027401723274    8    7    7    7
 1.728903135949744e-05    8    7    8    1
 -5.231298390050371e-06    8    7    8    2
 7.605787276859528e-06    8    7    8    3
 1.051340825436627e-06    8    7    8    4
 -1.183849130101389e-06    8    7    8    5
 2.029834472949683e-06    8    7    8    6
 0.0001238974986014077    8    7    8    7
 0.3561746324167661    8    8    1    1
 0.001332536530691791    8    8    2    1
 0.3605423318557805    8    8    2    2
 -0.0008719868259323303    8    8    3    1
 0.0004678876633116514    8    8    3    2
 0.3597377248495872    8    8    3    3
 0.000388826488696415    8    8    4    1
 -0.0005728782912608628    8    8    4    2
 -0.001819845434530596    8    8    4    3
 0.3648185094431917    8    8    4    4
 0.0002355994925239899    8    8    5    1
 0.0001517361902160543    8    8    5    2
 0.0001684275895674388    8    8    5    3
 -7.960058964688599e-05    8    8    5    4
 0.3560363092645492    8    8    5    5
 -0.000742956758888913    8    8    6    1
 0.0001944922886147338    8    8    6    2
 -0.0001300656661753427    8    8    6    3
 3.071433387225042e-05    8    8    6    4
 -1.569319932215318e-05    8    8    6    5
 0.1349992774570915    8    8    6    6
 9.953109665976866e-05    8    8    7    1
 -5.605030666643897e-05    8    8    7    2
 9.357379089879048e-05    8    8    7    3
 9.226845616699259e-07    8    8    7    4
 -7.101906576790357e-05    8    8    7    5
 0.006297250002433351    8    8    7    6
 0.1321049529817112    8    8    7    7
 0.003979511069085784    8    8    8    1
 -0.001141694843031615    8    8    8    2
 0.000657040852628854    8    8    8    3
 -0.0002779422354162175    8    8    8    4
 0.001238703040693068    8    8    8    5
 0.0003926365770064782    8    8    8    6
 0.0007953746042789547    8    8    8    7
 0.3144327598180634    8    8    8    8
 -0.0001703910565769457    9    1    1    1
 -2.327327907499605e-06    9    1    2    1
 -0.000173151590437726    9    1    2    2
 8.565956967836668e-06    9    1    3    1
 -3.168069609672913e-06    9    1    3    2
 -0.0002164573076433417    9    1    3    3
 -1.146147742516549e-05    9    1    4    1
 8.177543193102436e-06    9    1    4    2
 1.634577286814182e-05    9    1    4    3
 -0.0002110860584342517    9    1    4    4
 -2.637826858559828e-05    9    1    5    1
 -9.825896306692201e-06    9    1    5    2
 -3.638083994325416e-06    9    1    5    3
 -3.151695914787611e-06    9    1    5    4
 -4.410739948040318e-05    9    1    5    5
 4.076782736978253e-06    9    1    6    1
 -1.61496188899081e-06    9    1    6    2
 1.418219829032804e-06    9    1    6    3
 -4.836006526931806e-07    9    1    6    4
 1.723777014820673e-07    9    1    6    5
 0.0004465198448113628    9    1    6    6
 5.18615122320563e-07    9    1    7    1
 -8.093369276475912e-08    9    1    7    2
 6.144547645357937e-07    9    1    7    3
 -2.342653154375053e-07    9    1    7    4
 5.834506458606388e-07    9    1    7    5
 0.0001005414327329908    9    1    7    6
 0.0004002926296062752    9    1    7    7
 4.936049256103504e-05    9    1    8    1
 1.364296807484361e-06    9    1    8    2