 &FCI NORB=  25,NELEC=30,MS2=0,
  ORBSYM=1,1,1,1,1,1,1,1,1,1,1,1,1,1,1,1,1,1,1,1,1,1,1,1,1,
  ISYM=1,
 &END
 1.011194578154881    1    1    1    1
 0.003805703873646732    2    1    1    1
 0.04290482770330397    2    1    2    1
 0.9138348237770196    2    2    1    1
 0.003792782405392658    2    2    2    1
 0.987309487989277    2    2    2    2
 -0.003177708254755232    3    1    1    1
 0.007525788563874402    3    1    2    1
 0.004360693674069108    3    1    2    2
 0.04646407493017111    3    1    3    1
 -0.003699277049038557    3    2    1    1
 -0.003754167321472681    3    2    2    1
 0.009870094148893536    3    2    2    2
 -0.001213744100518062    3    2    3    1
 0.03703897551527616    3    2    3    2
 0.903924641248588    3    3    1    1
 0.005149040915179148    3    3    2    1
 0.9126827294520282    3    3    2    2
 -0.002718705023315338    3    3    3    1
 0.01029180111737632    3    3    3    2
 0.9837213775610847    3    3    3    3
 -0.002243914786314277    4    1    1    1
 0.002961925452042671    4    1    2    1
 -0.01409508414794861    4    1    2    2
 -0.006372594441822754    4    1    3    1
 -0.002663099836058676    4    1    3    2
 0.006390634752555323    4    1    3    3
 0.04831922550300226    4    1    4    1
 -0.00561390520033174    4    2    1    1
 0.007037673666807673    4    2    2    1
 0.002845048882188601    4    2    2    2
 0.01646495433185127    4    2    3    1
 0.0008784376766481624    4    2    3    2
 0.008301075479390825    4    2    3    3
 0.002418930307189149    4    2    4    1
 0.05509422539786853    4    2    4    2
 0.01303238583204712    4    3    1    1
 -0.01287155134554906    4    3    2    1
 -0.0006323561681730006    4    3    2    2
 -0.005010494368934054    4    3    3    1
 -0.002417271846398276    4    3    3    2
 0.0009499064224864837    4    3    3    3
 0.001520383954953172    4    3    4    1
 -0.002626268882477543    4    3    4    2
 0.05363305639244965    4    3    4    3
 0.8989963359567376    4    4    1    1
 -0.002071408900348286    4    4    2    1
 0.879071361102323    4    4    2    2
 -0.005149654916917767    4    4    3    1
 0.01322312894732624    4    4    3    2
 0.876138118536446    4    4    3    3
 -0.00211893271128704    4    4    4    1
 0.001834867541942882    4    4    4    2
 0.0009926145390165104    4    4    4    3
 0.9816232196107973    4    4    4    4
 0.001352697550800044    5    1    1    1
 0.005458281920286856    5    1    2    1
 0.004941035531988828    5    1    2    2
 -0.005217671679884524    5    1    3    1
 -0.001048020717332678    5    1    3    2
 0.0018314484223776    5    1    3    3
 -0.001189381956360615    5    1    4    1
 -0.0116844680638252    5    1    4    2
 -0.01208772685776615    5    1    4    3
 -0.006291725778971394    5    1    4    4
 0.03612013536925418    5    1    5    1
 -0.01172089949597442    5    2    1    1
 -0.003258323172185001    5    2    2    1
 0.0008457531173986788    5    2    2    2
 -0.006651087441704465    5    2    3    1
 0.005538069770422283    5    2    3    2
 0.01697442492961877    5    2    3    3
 0.009809143615052977    5    2    4    1
 0.001782427079586546    5    2    4    2
 0.001103523750606673    5    2    4    3
 -0.003907550971820447    5    2    4    4
 -0.001009222282817968    5    2    5    1
 0.03829812031824105    5    2    5    2
 0.01110567606142109    5    3    1    1
 0.007201408586869282    5    3    2    1
 -0.009227649509871223    5    3    2    2
 -0.0007384180288536046    5    3    3    1
 -0.008049290499284122    5    3    3    2
 -0.0008201418289215685    5    3    3    3
 0.0111234410662511    5    3    4    1
 0.001110776747182532    5    3    4    2
 -0.0002551861910315457    5    3    4    3
 -0.002018416960178375    5    3    4    4
 0.001469711598816731    5    3    5    1
 -0.00273512631365519    5    3    5    2
 0.03536946788029737    5    3    5    3
 0.003356616036158865    5    4    1    1
 0.001699457869236635    5    4    2    1
 -0.001931839080220616    5    4    2    2
 0.0007593952300599185    5    4    3    1
 -0.001940030931239405    5    4    3    2
 0.001048657180139491    5    4    3    3
 0.003358248985031682    5    4    4    1
 0.002255700687211753    5    4    4    2
 0.0008542811748992072    5    4    4    3
 0.0009236988075759902    5    4    4    4
 -0.001302557576698834    5    4    5    1
 -0.0003127806146156417    5    4    5    2
 0.003758795129373385    5    4    5    3
 0.02214156026742976    5    4    5    4
 0.7275074887525999    5    5    1    1
 0.002927340808139695    5    5    2    1
 0.7185337045614878    5    5    2    2
 -0.004359542152590282    5    5    3    1
 0.01118659790133896    5    5    3    2
 0.7208093889202156    5    5    3    3
 0.001457719539202653    5    5    4    1
 0.001997366643715125    5    5    4    2
 -0.007352018551431625    5    5    4    3
 0.7479790601953048    5    5    4    4
 0.000112347764912854    5    5    5    1
 0.001446860363494812    5    5    5    2
 -0.001172514028706988    5    5    5    3
 0.0005630093288995879    5    5    5    4
 0.664150441973003    5    5    5    5
 0.0007001684944373242    6    1    1    1
 -9.341639674361684e-05    6    1    2    1
 0.0006030512890214485    6    1    2    2
 5.551551376570691e-06    6    1    3    1
 -3.149651099508727e-06    6    1    3    2
 0.0005634158189952564    6    1    3    3
 -5.419686817077551e-05    6    1    4    1
 2.325088368172092e-05    6    1    4    2
 8.716660722421291e-05    6    1    4    3
 0.000604952774042096    6    1    4    4
 -7.155611034605132e-05    6    1    5    1
 -3.32361035363217e-05    6    1    5    2
 -1.788548957108802e-05    6    1    5    3
 1.738345944810589e-06    6    1    5    4
 0.0004307133452652542    6    1    5    5
 7.1408622972567e-06    6    1    6    1
 -0.001223184730074931    6    2    1    1
 3.56206362209547e-05    6    2    2    1
 -0.001426892412331433    6    2    2    2
 -1.563107156978994e-05    6    2    3    1
 -3.080900327624602e-05    6    2    3    2
 -0.001261779500229685    6    2    3    3
 6.99945018178653e-05    6    2    4    1
 -2.752101124072072e-06    6    2    4    2
 -1.62458773777834e-05    6    2    4    3
 -0.00109278929385272    6    2    4    4
 -2.299333309364461e-05    6    2    5    1
 -7.890675578691921e-06    6    2    5    2
 5.600755712899719e-05    6    2    5    3
 1.508572829271353e-05    6    2    5    4
 -0.0008482753331350367    6    2    5    5
 -1.312522655173756e-05    6    2    6    1
 4.156132943881961e-05    6    2    6    2
 -0.00039421592894258    6    3    1    1
 7.85623951325187e-06    6    3    2    1
 -0.0004405721175301481    6    3    2    2
 3.048425635709219e-05    6    3    3    1
 -9.620967808034772e-05    6    3    3    2
 -0.0004457075560812405    6    3    3    3
 3.351524551932141e-05    6    3    4    1
 2.811580378339907e-06    6    3    4    2
 2.19784790465557e-05    6    3    4    3
 -0.0005073121758032158    6    3    4    4
 -7.178937654896426e-06    6    3    5    1
 2.638527061798771e-06    6    3    5    2
 3.233437984490068e-05    6    3    5    3
 1.059087656272034e-05    6    3    5    4
 -0.0004037831140151699    6    3    5    5
 1.05986210392618e-05    6    3    6    1
 -2.682561273598572e-05    6    3    6    2
 2.959940337830493e-05    6    3    6    3
 -0.0004951509720510634    6    4    1    1
 5.051247370031653e-05    6    4    2    1
 -0.0004393968484794254    6    4    2    2
 2.306197980452712e-05    6    4    3    1
 -1.47643666427572e-05    6    4    3    2
 -0.0004119859540057925    6    4    3    3
 4.566347476755262e-05    6    4    4    1
 -2.364720373325024e-05    6    4    4    2
 -8.077817878980622e-05    6    4    4    3
 -0.0005651321696443515    6    4    4    4
 3.395395150375548e-05    6    4    5    1
 1.892277743547585e-05    6    4    5    2
 1.699534269930997e-05    6    4    5    3
 -1.986619641824882e-06    6    4    5    4
 -0.000389671554339368    6    4    5    5
 -1.683435050840124e-07    6    4    6    1
 -4.989113942587952e-06    6    4    6    2
 3.974405246877084e-06    6    4    6    3
 4.613937615594748e-06    6    4    6    4
 6.923024826943318e-06    6    5    1    1
 -2.68726813211382e-05    6    5    2    1
 8.893665834888079e-05    6    5    2    2
 -3.153684683460957e-06    6    5    3    1
 3.472297725301597e-05    6    5    3    2
 5.987963426704981e-05    6    5    3    3
 -3.715076694261579e-05    6    5    4    1
 -8.184066395924398e-06    6    5    4    2
 -5.303902718589685e-06    6    5    4    3
 6.970080928460926e-05    6    5    4    4
 1.50755915160264e-05    6    5    5    1
 -1.378673582295075e-05    6    5    5    2
 -7.127279246398182e-05    6    5    5    3
 -2.962394913070762e-05    6    5    5    4
 8.785553443429897e-05    6    5    5    5
 -1.825879415754848e-06    6    5    6    1
 3.180168932546425e-06    6    5    6    2
 -5.128090892743983e-06    6    5    6    3
 -9.430373105294432e-07    6    5    6    4
 1.740128701256292e-05    6    5    6    5
 0.1455920747642905    6    6    1    1
 -0.0004388582046361972    6    6    2    1
 0.1471586323857263    6    6    2    2
 0.0005087579912767398    6    6    3    1
 -0.0006157166298782768    6    6    3    2
 0.1465043546805735    6    6    3    3
 -0.0008164507323974064    6    6    4    1
 -0.0005544964938311555    6    6    4    2
 0.0002028899294529867    6    6    4    3
 0.1452748130425398    6    6    4    4
 -3.264985710827676e-05    6    6    5    1
 0.000161310416054777    6    6    5    2
 -0.0008724768759256418    6    6    5    3
 -0.0002473355205755332    6    6    5    4
 0.1430976209176919    6    6    5    5
 -0.0001319397531598376    6    6    6    1
 0.0002519092100108367    6    6    6    2
 0.0006426542740771701    6    6    6    3
 0.000432689996892055    6    6    6    4
 9.779558016997925e-05    6    6    6    5
 0.7487419987869388    6    6    6    6
 0.002281931470870877    7    1    1    1
 -0.0002160762126966502    7    1    2    1
 0.002028850732462233    7    1    2    2
 0.0002244213867703668    7    1    3    1
 -1.479005309288191e-05    7    1    3    2
 0.00195408601944652    7    1    3    3
 -3.994277814696207e-05    7    1    4    1
 9.861810550069883e-05    7    1    4    2
 0.0001651005768163731    7    1    4    3
 0.001995396745349099    7    1    4    4
 -0.0001247749210761837    7    1    5    1
 -7.234328160534746e-05    7    1    5    2
 -1.985409858712345e-05    7    1    5    3
 1.40127965928505e-05    7    1    5    4
 0.001545544109632655    7    1    5    5
 8.230382243167803e-06    7    1    6    1
 -1.673145611730156e-05    7    1    6    2
 7.336364706757997e-06    7    1    6    3
 -5.693954842759304e-07    7    1    6    4
 4.553199704701583e-07    7    1    6    5
 -0.0006330892357582961    7    1    6    6
 5.0034557203336e-05    7    1    7    1
 -0.00496305061579262    7    2    1    1
 7.839941958363871e-05    7    2    2    1
 -0.005399848772222097    7    2    2    2
 -1.076057236197385e-05    7    2    3    1
 0.000135850540612436    7    2    3    2
 -0.004903229901019136    7    2    3    3
 0.0001627124541810067    7    2    4    1
 0.0001148930590674719    7    2    4    2
 -6.995475804359637e-05    7    2    4    3
 -0.004505626551775293    7    2    4    4
 -7.082699031991444e-05    7    2    5    1
 3.767251390196905e-05    7    2    5    2
 9.1416811241924e-05    7    2    5    3
 2.790006745978681e-05    7    2    5    4
 -0.003727387708188178    7    2    5    5
 -1.784955823522227e-05    7    2    6    1
 4.631453538686894e-05    7    2    6    2
 -2.142131751442771e-05    7    2    6    3
 -4.006297960740257e-07    7    2    6    4
 -1.581918476691035e-06    7    2    6    5
 0.00159721592907731    7    2    6    6
 -0.0001188634021233436    7    2    7    1
 0.0003468401338249704    7    2    7    2
 0.004329096848662213    7    3    1    1
 4.774921543730978e-05    7    3    2    1
 0.004219752162837686    7    3    2    2
 7.468598602601226e-05    7    3    3    1
 -0.0002189483752439767    7    3    3    2
 0.004647592566690416    7    3    3    3
 0.0001162545011019093    7    3    4    1
 7.00383946633529e-05    7    3    4    2
 0.0001703222581443646    7    3    4    3
 0.003878317022607329    7    3    4    4
 -3.280356085488915e-05    7    3    5    1
 8.822063597844615e-05    7    3    5    2
 0.0001050209696588779    7    3    5    3
 3.832205014271945e-05    7    3    5    4
 0.003258339258022045    7    3    5    5
 1.266610425644348e-05    7    3    6    1
 -3.333693747875448e-05    7    3    6    2
 1.393375500287775e-05    7    3    6    3
 2.696463594405868e-07    7    3    6    4
 1.207891534658195e-06    7    3    6    5
 -0.001570888812724879    7    3    6    6
 8.864175807324695e-05    7    3    7    1
 -0.0002515144329730476    7    3    7    2
 0.0001969422775784063    7    3    7    3
 0.00102570916047518    7    4    1    1
 -1.034158934007048e-05    7    4    2    1
 0.0009480557223746051    7    4    2    2
 -5.591264856227569e-05    7    4    3    1
 -1.48353627182502e-05    7    4    3    2
 0.001020857131977915    7    4    3    3
 0.0001298822607342382    7    4    4    1
 -0.0001913383601856322    7    4    4    2
 0.0001787356336644098    7    4    4    3
 0.0009876406643403307    7    4    4    4
 8.485386836397846e-06    7    4    5    1
 3.659219154289209e-05    7    4    5    2
 3.741281324117245e-05    7    4    5    3
 2.158161904549688e-05    7    4    5    4
 0.0007705371644868986    7    4    5    5
 2.872196843635259e-06    7    4    6    1
 -6.707697414975056e-06    7    4    6    2
 3.315265549062169e-06    7    4    6    3
 -9.408490164032439e-07    7    4    6    4
 1.814408038217519e-07    7    4    6    5
 -0.0004254022307653187    7    4    6    6
 1.75717492291289e-05    7    4    7    1
 -5.17518624471862e-05    7    4    7    2
 3.950154765706038e-05    7    4    7    3
 1.271990673025177e-05    7    4    7    4
 4.364901773033033e-05    7    5    1    1
 8.397290599264615e-05    7    5    2    1
 -0.0001620803080285081    7    5    2    2
 2.095876527134752e-05    7    5    3    1
 -8.559085968867401e-05    7    5    3    2
 -0.0002201382236747041    7    5    3    3
 1.423825821731163e-05    7    5    4    1
 -3.370312905356219e-05    7    5    4    2
 -4.486222612813099e-05    7    5    4    3
 -0.0001114482629579848    7    5    4    4
 0.0001220495331555761    7    5    5    1
 -0.0002824628785539191    7    5    5    2
 0.0002632424870131544    7    5    5    3
 5.668250514622841e-05    7    5    5    4
 -0.000371685435736571    7    5    5    5
 4.069020467498184e-07    7    5    6    1
 -6.563624931484963e-07    7    5    6    2
 1.830787960754602e-06    7    5    6    3
 4.971026703861551e-07    7    5    6    4
 -5.688669573809921e-06    7    5    6    5
 7.452132983095896e-05    7    5    6    6
 -1.321750095441363e-06    7    5    7    1
 3.68310610207107e-06    7    5    7    2
 -4.85058286033613e-06    7    5    7    3
 -9.052435799587261e-07    7    5    7    4
 4.215373023056697e-05    7    5    7    5
 0.003189400565298411    7    6    1    1
 -0.0001084288229383273    7    6    2    1
 0.003387544669561247    7    6    2    2
 9.027679667715722e-05    7    6    3    1
 -0.0003036765043139222    7    6    3    2
 0.003281419209486518    7    6    3    3
 3.402715476608645e-05    7    6    4    1
 -2.651171311585706e-05    7    6    4    2
 0.0001365328874568955    7    6    4    3
 0.002845646662141841    7    6    4    4
 1.926001211972965e-05    7    6    5    1
 -3.669530465413856e-05    7    6    5    2
 7.780200300855101e-05    7    6    5    3
 3.514191652913615e-05    7    6    5    4
 0.00248634278387721    7    6    5    5
 -0.0001007355889999784    7    6    6    1
 0.0001915452056407002    7    6    6    2
 -0.0003565630392226016    7    6    6    3
 -0.0001044286677462369    7    6    6    4
 5.874114412851572e-05    7    6    6    5
 -0.07063601792344185    7    6    6    6
 -0.0001433239136278686    7    6    7    1
 0.00042591920195445    7    6    7    2
 -0.0002375315576408077    7    6    7    3
 -5.458375188943654e-05    7    6    7    4
 -9.439150185697187e-06    7    6    7    5
 0.0466455969174772    7    6    7    6
 0.1487884616687696    7    7    1    1
 -0.0009242731322806619    7    7    2    1
 0.1511000873696525    7    7    2    2
 0.0008853845808138583    7    7    3    1
 -0.001986855906794736    7    7    3    2
 0.1501893428318998    7    7    3    3
 -0.0004360291372615174    7    7    4    1
 -0.0005888760433546171    7    7    4    2
 0.0007534682173594775    7    7    4    3
 0.1473259603350752    7    7    4    4
 -8.532880554277394e-06    7    7    5    1
 7.620967503206132e-05    7    7    5    2
 -0.0004236494643882958    7    7    5    3
 -5.509730770049913e-05    7    7    5    4
 0.144482827504451    7    7    5    5
 -0.0003001727580100866    7    7    6    1
 0.0007167503453895385    7    7    6    2
 -0.0002778559696956506    7    7    6    3
 2.160608595813684e-05    7    7    6    4
 0.0001073317705706511    7    7    6    5
 0.3767287418288252    7    7    6    6
 -0.000976695963049945    7    7    7    1
 0.002991046091255001    7    7    7    2
 -0.002463062916478576    7    7    7    3
 -0.0006341564342957628    7    7    7    4
 4.248114735450059e-05    7    7    7    5
 0.05279935540643782    7    7    7    6
 0.5822497610828268    7    7    7    7
 -0.0001982904263758967    8    1    1    1
 -0.0007997698488797689    8    1    2    1
 -0.0008171709534892245    8    1    2    2
 0.002107327372580793    8    1    3    1
 -0.0002078799584722063    8    1    3    2
 -0.002220064479669226    8    1    3    3
 -0.001281860348040881    8    1    4    1
 0.002584952565769144    8    1    4    2
 0.002548776990468986    8    1    4    3
 -0.0003772428499799954    8    1    4    4
 -0.003565173099396265    8    1    5    1
 -0.001432227326466005    8    1    5    2
 -0.0005572026824268    8    1    5    3
 0.0001258274147746506    8    1    5    4
 -0.002150319412823823    8    1    5    5
 1.528579823741776e-05    8    1    6    1
 -1.755138435074858e-06    8    1    6    2
 3.666656234512167e-06    8    1    6    3
 -8.16792603101335e-06    8    1    6    4
 -7.203808268634428e-06    8    1    6    5
 -0.0001341084305731954    8    1    6    6
 1.336285489293286e-05    8    1    7    1
 9.776188642828991e-06    8    1    7    2
 -1.166214211833663e-06    8    1    7    3
 -1.736521753929121e-05    8    1    7    4
 -1.107746663951562e-06    8    1    7    5
 3.529420681994571e-05    8    1    7    6
 5.454817451755222e-05    8    1    7    7
 0.001733584658781099    8    1    8    1
 -0.0003195377684555157    8    2    1    1
 0.0003655032397415249    8    2    2    1
 -0.003241850895348261    8    2    2    2
 -0.0001401730248786345    8    2    3    1
 -0.0002120633394504799    8    2    3    2
 -0.001048938111591205    8    2    3    3
 0.00225856260275515    8    2    4    1
 0.001345324404971461    8    2    4    2
 4.542274237691693e-05    8    2    4    3
 0.003238845530510021    8    2    4    4
 -0.001448580192953358    8    2    5    1
 6.667385650591611e-05    8    2    5    2
 0.001674749872496581    8    2    5    3
 0.0006184256469635311    8    2    5    4
 0.003759961035536986    8    2    5    5
 -3.043109105480175e-06    8    2    6    1
 2.598436315866487e-05    8    2    6    2
 -4.990409310524511e-06    8    2    6    3
 -6.103600461363173e-06    8    2    6    4
 1.089652921681039e-05    8    2    6    5
 -1.493629997370659e-05    8    2    6    6
 -2.127391008578585e-07    8    2    7    1
 3.315302089888805e-05    8    2    7    2
 -6.467280550050548e-06    8    2    7    3
 3.040520804821305e-06    8    2    7    4
 -8.259718210658958e-06    8    2    7    5
 -0.0001469761537220499    8    2    7    6
 -0.0006389398094360524    8    2    7    7
 9.265300676243593e-05    8    2    8    1
 0.001455624991507589    8    2    8    2
 0.001204048379151973    8    3    1    1
 -0.0004251156915922596    8    3    2    1
 -0.0009248340344262149    8    3    2    2
 -0.001252579935655151    8    3    3    1
 -0.001117774799303663    8    3    3    2
 0.001827869333182729    8    3    3    3
 0.002510808255894765    8    3    4    1
 -0.0002613170572709513    8    3    4    2
 0.002467197604201596    8    3    4    3
 -0.003003236494440387    8    3    4    4
 -0.0005747216458769548    8    3    5    1
 0.001684561065695174    8    3    5    2
 0.00155002893556201    8    3    5    3
 0.0005551346576428246    8    3    5    4
 -0.00378230297706803    8    3    5    5
 4.585191131670262e-06    8    3    6    1
 -6.65503436594341e-06    8    3    6    2
 1.487948912380101e-05    8    3    6    3
 3.38537185762234e-06    8    3    6    4
 -2.081980487393794e-05    8    3    6    5
 0.0002142028985732594    8    3    6    6
 1.111105097852051e-05    8    3    7    1
 -2.10845696282571e-05    8    3    7    2
 3.514774695842493e-05    8    3    7    3
 3.05181670096303e-05    8    3    7    4
 2.072384695391786e-05    8    3    7    5
 0.0001128692467894579    8    3    7    6
 0.0008097062355992568    8    3    7    7
 -7.447077338412419e-05    8    3    8    1
 -4.728944911367057e-05    8    3    8    2
 0.001746763007939767    8    3    8    3
 -0.002730222329877361    8    4    1    1
 0.002908165458708566    8    4    2    1
 0.0006878861226001288    8    4    2    2
 0.003079193786038945    8    4    3    1
 -5.876792744207012e-05    8    4    3    2
 0.001692168094551943    8    4    3    3
 0.0004605390305356949    8    4    4    1
 0.003989453862555023    8    4    4    2
 -0.003150120296041161    8    4    4    3
 -0.003239295358854579    8    4    4    4
 0.000122886449136058    8    4    5    1
 0.0006452261392076586    8    4    5    2
 0.0005639040944146968    8    4    5    3
 -2.94309224473564e-05    8    4    5    4
 -0.001433348221253371    8    4    5    5
 -1.321676976241064e-05    8    4    6    1
 -6.970403412903095e-06    8    4    6    2
 3.239914972229696e-06    8    4    6    3
 1.940988123546602e-05    8    4    6    4
 -8.720019730433688e-06    8    4    6    5
 7.789920091371531e-05    8    4    6    6
 -1.740823836486713e-05    8    4    7    1
 6.22328395170089e-06    8    4    7    2
 2.649424924431622e-05    8    4    7    3
 -7.32744459894611e-05    8    4    7    4
 6.468373136995673e-06    8    4    7    5
 -8.373987519677613e-06    8    4    7    6
 5.638625694833494e-05    8    4    7    7
 0.0002331537393234695    8    4    8    1
 -1.534950052360456e-05    8    4    8    2
 -0.0002827483863443717    8    4    8    3
 0.002668174543210993    8    4    8    4
 -0.008612757679579131    8    5    1    1
 -0.003385271973699946    8    5    2    1
 -0.000176337062529998    8    5    2    2
 -0.001303173092301563    8    5    3    1
 0.003885589752958012    8    5    3    2
 0.003179587861847298    8    5    3    3
 0.0002706716447253945    8    5    4    1
 0.001469384493951993    8    5    4    2
 0.001444412509991141    8    5    4    3
 -0.0009087146658752019    8    5    4    4
 -0.002525603449341024    8    5    5    1
 0.006881431578824412    8    5    5    2
 -0.005815848847873669    8    5    5    3
 -0.001136584422801887    8    5    5    4
 0.005752712581830993    8    5    5    5
 -8.328130593095303e-06    8    5    6    1
 1.730079286896058e-05    8    5    6    2
 -2.455992831374972e-05    8    5    6    3
 -7.776112789231955e-06    8    5    6    4
 6.851288638783754e-05    8    5    6    5
 0.000704299490493498    8    5    6    6
 -5.282160401403322e-06    8    5    7    1
 7.371883164125972e-07    8    5    7    2
 2.771601789372763e-05    8    5    7    3
 6.724218414470021e-06    8    5    7    4
 -0.0009573981858612216    8    5    7    5
 -0.00021815112526063    8    5    7    6
 2.756258600791328e-05    8    5    7    7
 -0.0001070578102136364    8    5    8    1
 0.0002963262735759648    8    5    8    2
 -0.0002049666408772553    8    5    8    3
 -0.0001044764662073662    8    5    8    4
 0.02470753590884061    8    5    8    5
 0.00166390525592984    8    6    1    1
 -2.199938978189559e-05    8    6    2    1
 0.001693253515927938    8    6    2    2
 4.143435362196669e-07    8    6    3    1
 2.287120273877969e-05    8    6    3    2
 0.001673319797938083    8    6    3    3
 -4.137786362847835e-05    8    6    4    1
 -1.224292024904759e-05    8    6    4    2
 1.782299714876215e-05    8    6    4    3
 0.001693364633738162    8    6    4    4
 -2.437931588571748e-05    8    6    5    1
 4.86523963426739e-05    8    6    5    2
 -7.218062729487113e-05    8    6    5    3
 -2.604988086198903e-05    8    6    5    4
 0.001775689957980547    8    6    5    5
 -2.180610593656429e-06    8    6    6    1
 9.376944904986029e-06    8    6    6    2
 -2.233026757921322e-05    8    6    6    3
 -1.025121991626854e-05    8    6    6    4
 2.412423794229818e-05    8    6    6    5
 -0.009284108774437643    8    6    6    6
 1.355326349325534e-05    8    6    7    1
 -3.241805041175006e-05    8    6    7    2
 2.767507699515418e-05    8    6    7    3
 7.15305217096002e-06    8    6    7    4
 -1.909080421897726e-05    8    6    7    5
 0.002190060520814578    8    6    7    6
 -0.00107042505115526    8    6    7    7
 -2.688835906107523e-05    8    6    8    1
 7.103929123971654e-05    8    6    8    2
 -8.099100998883429e-06    8    6    8    3
 -2.700272666261022e-05    8    6    8    4
 0.0003795989290171844    8    6    8    5
 0.0003813609172308362    8    6    8    6
 -0.005962492264417212    8    7    1    1
 -6.447938078608139e-05    8    7    2    1
 -0.00578243236974721    8    7    2    2
 8.53466864191646e-05    8    7    3    1
 -0.0002124272720165565    8    7    3    2
 -0.005823952403429917    8    7    3    3
 -1.122518542196808e-05    8    7    4    1
 -1.991122976277228e-05    8    7    4    2
 0.0001628394226202838    8    7    4    3
 -0.006403975240339829    8    7    4    4
 -1.322633442944906e-05    8    7    5    1
 -6.54940793790574e-06    8    7    5    2
 3.053434004805295e-05    8    7    5    3
 8.328250424844915e-06    8    7    5    4
 -0.006611644745272385    8    7    5    5
 -1.015228701371079e-05    8    7    6    1
 2.185956806626671e-05    8    7    6    2
 3.069193659999137e-06    8    7    6    3
 7.12375935768908e-06    8    7    6    4
 -1.074561365795035e-05    8    7    6    5
 0.008462738446351687    8    7    6    6
 -3.471129942307638e-05    8    7    7    1
 0.0001133322761877678    8    7    7    2
 -0.0001070299811972535    8    7    7    3
 -2.871723859356606e-05    8    7    7    4
 1.728214842418307e-05    8    7    7    5
 0.001528893207607265    8    7    7    6
 0.01641785737062395    8    7    7    7
 5.359030576764651e-05    8    7    8    1
 -0.0001662988926377836    8    7    8    2
 0.000187443304220835    8    7    8    3
 4.899932819104127e-05    8    7    8    4
 -0.0002246228261816516    8    7    8    5
 -0.0001519366371123248    8    7    8    6
 0.0009200679657652526    8    7    8    7
 0.3578207958994606    8    8    1    1
 0.001300111070264898    8    8    2    1
 0.3543488197065556    8    8    2    2
 -0.001107059823718892    8    8    3    1
 0.003170574098999165    8    8    3    2
 0.3552886773053933    8    8    3    3
 7.702002828680402e-05    8    8    4    1
 0.0005371574301211365    8    8    4    2
 -0.001986663676340643    8    8    4    3
 0.3625965382802652    8    8    4    4
 0.0001359405325897581    8    8    5    1
 0.0002780851416294659    8    8    5    2
 -0.0003715785014621704    8    8    5    3
 0.0001123496099305014    8    8    5    4
 0.353621869851838    8    8    5    5
 0.000153864405479931    8    8    6    1
 -0.0002844942236857051    8    8    6    2
 -0.0001643835606261468    8    8    6    3
 -0.0001639078761438983    8    8    6    4
 0.0002517058826957408    8    8    6    5
 0.1428299826880794    8    8    6    6
 0.0007336794671121138    8    8    7    1
 -0.001927530604391825    8    8    7    2
 0.001724917667266901    8    8    7    3
 0.0003896382410673582    8    8    7    4
 -0.0002521259768288875    8    8    7    5
 0.001174068144322495    8    8    7    6
 0.1404532194741162    8    8    7    7
 -0.00110187316024879    8    8    8    1
 0.002869181805295495    8    8    8    2
 -0.002826478001587251    8    8    8    3
 -0.0007824946249972431    8    8    8    4
 0.002996726232437741    8    8    8    5
 0.002141758712689817    8    8    8    6
 -0.006115000392967043    8    8    8    7
 0.3110764202739134    8    8    8    8
 -0.0003944139335788502    9    1    1    1
 0.0001250310418836    9    1    2    1
 -0.0002796045996407851    9    1    2    2
 -0.0005098602560285819    9    1    3    1
 2.241700611407675e-05    9    1    3    2
 7.649985795903303e-05    9    1    3    3
 0.0002868084806662303    9    1    4    1
 -0.0005382918581712403    9    1    4    2
 -0.0004751423094512203    9    1    4    3
 -0.0003132599118321347    9    1    4    4
 0.000596677487408302    9    1    5    1
 0.0003145226811327354    9    1    5    2
 0.0001179648437555554    9    1    5    3
 -1.987475734709059e-05    9    1    5    4
 7.081532111730945e-05    9    1    5    5
 -1.180041648201529e-06    9    1    6    1
 -2.43533049096989e-06    9    1    6    2
 1.459151663119794e-06    9    1    6    3
 4.564709106876386e-06    9    1    6    4
 -8.897714741426099e-06    9    1    6    5
 0.0001014862240794779    9    1    6    6
 1.383509903844391e-07    9    1    7    1
 -2.215417370873721e-06    9    1    7    2
 -3.887525117275562e-07    9    1    7    3
 3.216383557010159e-06    9    1    7    4
 5.178503112180169e-06    9    1    7    5
 1.231315671061773e-05    9    1    7    6
 0.0001787376463320201    9    1    7    7
 -0.0004165404907487262    9    1    8    1
 -4.541020659008126e-05    9    1    8    2
 5.50089713248478e-05    9    1    8    3
 -8.581515224649866e-05    9    1    8    4