 &FCI NORB=   6,NELEC= 8,MS2=0,
  ORBSYM=1,1,1,1,1,1,
  ISYM=1,
 &END
 -12.58754882235098    1    1    1    1
 0.002880590877259216    2    1    1    1
 0.2483840513282852    2    1    2    1
 0.6539656407007503    2    2    1    1
 -0.002597738688925015    2    2    2    1
 -11.17958560481275    2    2    2    2
 0.062935726208768    3    1    3    1
 -7.641330412433757e-15    3    2    2    2
 -6.853661921464174e-06    3    2    3    1
 0.04596197408473887    3    2    3    2
 0.5141859640752603    3    3    1    1
 -3.128205169508588e-05    3    3    2    1
 0.5196560938986292    3    3    2    2
 2.202172948174138e-15    3    3    3    2
 -2.864564881310142    3    3    3    3
 -8.414435894506586e-15    4    1    1    1
 1.903109438195219e-15    4    1    3    3
 0.06293572620876815    4    1    4    1
 1.116866088282477e-14    4    2    2    2
 -4.649281066374567e-15    4    2    3    3
 -6.853661921234966e-06    4    2    4    1
 0.04596197408473893    4    2    4    2
 -1.433117857982964e-15    4    3    1    1
 -1.528090517977962e-15    4    3    2    2
 1.903109438195219e-15    4    3    3    1
 -4.649281066374567e-15    4    3    3    2
 0.6452121255326584    4    3    3    3
 -2.886813361314128    4    3    4    3
 0.5141859640752604    4    4    1    1
 -3.128205169424006e-05    4    4    2    1
 0.5196560938986291    4    4    2    2
 -2.458133335984352    4    4    3    3
 2.203300276930425e-15    4    4    4    1
 -4.914454046515261e-15    4    4    4    2
 -0.6244010245498431    4    4    4    3
 -2.913389041412747    4    4    4    4
 -0.001877520348165132    5    1    3    1
 -6.410250142606251e-07    5    1    3    2
 0.02774513001597604    5    1    4    1
 9.472772096035835e-06    5    1    4    2
 0.04635124501836747    5    1    5    1
 1.762041646112339e-14    5    2    2    2
 -8.777541586992593e-07    5    2    3    1
 0.000776392093933911    5    2    3    2
 -2.736744010146592e-15    5    2    3    3
 1.297104624138833e-05    5    2    4    1
 -0.01147316438440981    5    2    4    2
 -3.034093237762882e-15    5    2    4    4
 5.350619496605055e-06    5    2    5    1
 0.01833927512296594    5    2    5    2
 -0.003886595869916551    5    3    1    1
 -1.486910927007263e-06    5    3    2    1
 -0.001127430151811349    5    3    2    2
 -2.736744010146591e-15    5    3    3    2
 0.4906701579629916    5    3    3    3
 -1.260107930082772    5    3    4    3
 -0.3741606997018153    5    3    4    4
 -0.8071356849375215    5    3    5    3
 0.05743432172960268    5    4    1    1
 2.197288409199193e-05    5    4    2    1
 0.01666064294669733    5    4    2    2
 -1.254679404958438    5    4    3    3
 -3.034093237762881e-15    5    4    4    2
 -0.373793349958794    5    4    4    3
 -1.018407247938888    5    4    4    4
 0.2500847706916081    5    4    5    3
 -1.516711337948493    5    4    5    4
 0.5625645779282424    5    5    1    1
 -1.012807424004306e-05    5    5    2    1
 0.5435210236864367    5    5    2    2
 -0.3543517946447726    5    5    3    3
 0.2543955253005048    5    5    4    3
 -1.127338081744305    5    5    4    4
 -3.499598244487292e-15    5    5    5    2
 -0.7278090047366368    5    5    5    3
 1.840794459941052    5    5    5    4
 -4.162556540075455    5    5    5    5
 0.02774513001597607    6    1    3    1
 9.472772096091211e-06    6    1    3    2
 0.001877520348165003    6    1    4    1
 6.410250143000001e-07    6    1    4    2
 0.04635124501836763    6    1    6    1
 1.348367619081502e-14    6    2    2    2
 1.29710462415125e-05    6    2    3    1
 -0.01147316438440975    6    2    3    2
 8.777541587673499e-07    6    2    4    1
 -0.0007763920939339575    6    2    4    2
 -2.77925146377453e-15    6    2    4    3
 5.350619496605697e-06    6    2    6    1
 0.01833927512296593    6    2    6    2
 0.05743432172960274    6    3    1    1
 2.197288409253631e-05    6    3    2    1
 0.01666064294669746    6    3    2    2
 -1.126047637278646    6    3    3    3
 -2.77925146377453e-15    6    3    4    2
 0.3291983743011929    6    3    4    3
 -1.257697158855257    6    3    4    4
 -0.01874035956897906    6    3    5    3
 -0.7205026525322434    6    3    5    4
 0.08662820461539206    6    3    5    5
 2.811186684034312e-15    6    3    6    2
 -1.279588025344751    6    3    6    3
 0.003886595869916483    6    4    1    1
 1.486910927098368e-06    6    4    2    1
 0.00112743015181133    6    4    2    2
 -2.77925146377453e-15    6    4    3    2
 0.329565724044214    6    4    3    3
 -1.263125683979591    6    4    4    3
 -0.5281852919759864    6    4    4    4
 -0.7914805469343358    6    4    5    3
 0.09869190326197079    6    4    5    4
 -0.5973797989576627    6    4    5    5
 -0.1540870291909036    6    4    6    3
 -0.7952291498805614    6    4    6    4
 -0.01442960496008108    6    5    3    3
 -0.7876969167775699    6    5    4    3
 0.0943811486530729    6    5    4    4
 0.04685653613193882    6    5    5    3
 -0.6000711583715549    6    5    5    4
 1.212429680764343    6    5    5    5
 -2.380115456512119e-15    6    5    6    2
 0.4287473467316783    6    5    6    3
 0.03526300810401569    6    5    6    4
 -0.7649759169067353    6    5    6    5
 0.5625645779282427    6    6    1    1
 -1.012807424033398e-05    6    6    2    1
 0.5435210236864368    6    6    2    2
 2.811186684034312e-15    6    6    3    2
 -0.8902147691405632    6    6    3    3
 -0.1583977837998027    6    6    4    3
 -0.3424452595878127    6    6    4    4
 -2.380115456512119e-15    6    6    5    2
 0.4260559873177863    6    6    5    3
 0.07503467658746946    6    6    5    4
 -0.2709416767181517    6    6    5    5
 -5.644692740831833e-15    6    6    6    2
 1.318755480795193    6    6    6    3
 0.5203741390097096    6    6    6    4
 -0.8436280671251132    6    6    6    5
 -3.013828130099556    6    6    6    6
 -6.060295414284214    1    1  0  0
 0.0001399230426520606    2    1  0  0
 -5.401299568079027    2    2  0  0
 -1.196381220604348e-15    3    2  0  0
 -4.025868441028404    3    3  0  0
 -1.410864738457301e-15    4    1  0  0
 1.147953540943746e-15    4    2  0  0
 1.158101392562116e-14    4    3  0  0
 -4.025868441028399    4    4  0  0
 2.588838416684385e-15    5    2  0  0
 0.01012393303854216    5    3  0  0
 -0.1496068144890605    5    4  0  0
 -3.671771477034919    5    5  0  0
 2.241681385130976e-15    6    2  0  0
 -0.1496068144890674    6    3  0  0
 -0.01012393303854163    6    4  0  0
 -3.671771477034914    6    6  0  0
 0  0  0  0  0
