 &FCI NORB=   6,NELEC= 8,MS2=0,
  ORBSYM=1,1,1,1,1,1,
  ISYM=1,
 &END
