 &FCI NORB=   6,NELEC= 8,MS2=0,
  ORBSYM=1,1,1,1,1,1,
  ISYM=1,
 &END
 -0.9995341485656145    1    1    1    1
 -6.921886420205553e-05    2    1    1    1
 0.2483853130287499    2    1    2    1
 -0.9147487071407218    2    2    1    1
 7.988268396901423e-05    2    2    2    1
 -0.8055843495009014    2    2    2    2
 0.062935726208768    3    1    3    1
 -6.853661921464174e-06    3    2    3    1
 0.04596197408473887    3    2    3    2
 -0.8617500262811922    3    3    1    1
 -1.184002666746804e-05    3    3    2    1
 -0.7695646580732148    3    3    2    2
 -0.6214744482040857    3    3    3    3
 -0.6214744482040857    4    4    4    4
 -0.01792171678171812    5    4    4    4
 0.1076822422455455    5    4    5    4
 -0.5582424254417803    5    5    4    4
 0.03663767703537264    5    5    5    4
 -0.4522671523335023    5    5    5    5
 -0.001212767354571785    6    4    4    4
 0.006449110987566548    6    4    5    4
 0.001519761236075663    6    4    5    5
 0.01281666669527061    6    4    6    4
 0.002138356378668671    6    5    4    4
 0.0004797600703242341    6    5    5    4
 0.00708967311093892    6    5    6    4
 0.02261777415819407    6    5    6    5
 -0.5896973669034942    6    6    4    4
 0.02245833081349552    6    6    5    4
 -0.4975027006498899    6    6    5    5
 0.00247928137672474    6    6    6    4
 -0.4522671523335013    6    6    6    6
 -0.3441065546640483    1    1  0  0
 1.905078922747265e-06    2    1  0  0
 -0.2556185311937063    2    2  0  0
 -0.2562883739552894    3    3  0  0
 -0.2504877696316348    4    4  0  0
 0.01290281668229672    5    4  0  0
 -0.1609835679648814    5    5  0  0
 0.0008731370462385944    6    4  0  0
 0.003224555493783283    6    5  0  0
 -0.2084163557400183    6    6  0  0
 0  0  0  0  0
