 &FCI NORB=  14,NELEC=22,MS2=0,
  ORBSYM=1,1,1,1,1,1,1,1,1,1,1,1,1,1,
  ISYM=1,
 &END
 16.14200225874847    1    1    1    1
 0.1258806137710159    2    1    1    1
 0.07686840947698155    2    1    2    1
 15.72261047029552    2    2    1    1
 -0.1250795775596524    2    2    2    1
 16.12331755346359    2    2    2    2
 11.02760323164104    3    3    3    3
 0.1208952190583735    4    3    3    3
 0.1386738747714885    4    3    4    3
 10.88661129023942    4    4    3    3
 0.003962516142491927    4    4    4    3
 10.88973985319572    4    4    4    4
 8.747999775382425    5    5    5    5
 -0.06334089727439275    6    5    5    5
 0.09154903711295909    6    5    6    5
 8.610320780255259    6    6    5    5
 0.09254589165493807    6    6    6    5
 8.773939455202566    6    6    6    6
 13.86377048617894    7    7    7    7
 0.03140620152448824    8    7    7    7
 0.01961615697295257    8    7    8    7
 13.66129237879757    8    8    7    7
 0.009143017488390807    8    8    8    7
 13.6475291634037    8    8    8    8
 13.50514652071528    9    9    9    9
 -0.004332783654709406   10    9    9    9
 0.02993313527286675   10    9   10    9
 13.48236355793778   10   10    9    9
 -0.006151329563679792   10   10   10    9
 13.57147241773892   10   10   10   10
 12.57465351235443   11   11   11   11
 -0.0104480716080964   12   11   11   11
 0.07813040466164121   12   11   12   11
 12.56794304172256   12   12   11   11
 0.02151937228003071   12   12   12   11
 12.72209948212009   12   12   12   12
 10.64779023749423   13   13   13   13
 0.01523936263953007   14   13   13   13
 0.04541765780428374   14   13   14   13
 10.46228571761901   14   14   13   13
 0.0007974035633235659   14   14   14   13
 10.45791617222511   14   14   14   14
 -64.36149875215966    1    1  0  0
 0.1339985767848181    2    1  0  0
 -64.72397173976543    2    2  0  0
 -45.3841613615224    3    3  0  0
 0.2170199494888995    4    3  0  0
 -44.79586177429563    4    4  0  0
 -37.61975382841688    5    5  0  0
 0.1899707477890307    6    5  0  0
 -37.02621668476358    6    6  0  0
 -54.70223165039958    7    7  0  0
 -0.06381769819939903    8    7  0  0
 -54.30244471390461    8    8  0  0
 -53.33503940238741    9    9  0  0
 -0.07365469076463016   10    9  0  0
 -53.31125568276588   10   10  0  0
 -25.60808249550065   11   11  0  0
 -0.7506345273176767   12   11  0  0
 -25.59067579578232   12   12  0  0
 -3.098200576676852   13   13  0  0
 -0.2905187368605382   14   13  0  0
 -2.009846312439799   14   14  0  0
 -275.1701482834461  0  0  0  0
