 &FCI NORB=  14,NELEC=24,MS2=0,
  ORBSYM=1,1,1,1,1,1,1,1,1,1,1,1,1,1,
  ISYM=1,
 &END
 9.955611654362409    1    1    1    1
 -0.01026547981098999    2    1    1    1
 0.08168294181151078    2    1    2    1
 9.937491291130101    2    2    1    1
 0.00898757900313555    2    2    2    1
 9.940513538301872    2    2    2    2
 13.00416219973428    3    3    3    3
 -0.002646996915874685    4    3    3    3
 0.008794527399577376    4    3    4    3
 12.79057142465989    4    4    3    3
 0.004243510675474341    4    4    4    3
 13.19317787757904    4    4    4    4
 9.246864990642617    5    5    5    5
 -0.07034649868665088    6    5    5    5
 0.02891840386752951    6    5    6    5
 8.903944518312061    6    6    5    5
 0.03224098008111652    6    6    6    5
 9.084826925624764    6    6    6    6
 10.59772262739402    7    7    7    7
 -0.07956458960238917    8    7    7    7
 0.0499773610043769    8    7    8    7
 10.41183899604416    8    8    7    7
 -0.004479808689252938    8    8    8    7
 10.42911872186483    8    8    8    8
 14.17158143321853    9    9    9    9
 -0.07039170248879247   10    9    9    9
 0.03978301052510307   10    9   10    9
 13.96592526928466   10   10    9    9
 -0.004914096619017707   10   10   10    9
 13.9810586972151   10   10   10   10
 10.20328159391213   11   11   11   11
 0.02989867131478702   12   11   11   11
 0.1880751077344182   12   11   12   11
 10.18460261352582   12   12   11   11
 -0.04238323822683822   12   12   12   11
 10.20975719197468   12   12   12   12
 10.99345055903326   13   13   13   13
 -0.006691957583815889   14   13   13   13
 0.06016756494770468   14   13   14   13
 10.99351090688338   14   14   13   13
 0.008159504137565238   14   14   14   13
 11.00411039908071   14   14   14   14
 -41.89229581986229    1    1  0  0
 -0.0642206168676689    2    1  0  0
 -41.73494612570737    2    2  0  0
 -58.76568194384916    3    3  0  0
 0.02954500036104343    4    3  0  0
 -58.65981736408331    4    4  0  0
 -44.87000135279577    5    5  0  0
 -0.006353867586931719    6    5  0  0
 -44.78091857926368    6    6  0  0
 -49.00602211638924    7    7  0  0
 -0.0584577494649121    8    7  0  0
 -49.12651756557269    8    8  0  0
 -61.46266338517741    9    9  0  0
 -0.04184319683059746   10    9  0  0
 -61.53357610770662   10   10  0  0
 -48.24655808707346   11   11  0  0
 -0.0237591643385535   12   11  0  0
 -48.23362016923193   12   12  0  0
 0.252611106939618   13   13  0  0
 0.03448665801644522   14   13  0  0
 0.1182654533881538   14   14  0  0
 -4751.083687553801  0  0  0  0
