 &FCI NORB=  15,NELEC=22,MS2=0,
  ORBSYM=1,1,1,1,1,1,1,1,1,1,1,1,1,1,1,
  ISYM=1,
 &END
 15.68925523910199    1    1    1    1
 -0.0002801620715709974    2    1    1    1
 0.004126146254611861    2    1    2    1
 15.67576394905699    2    2    1    1
 -8.867696362191619e-05    2    2    2    1
 16.2128083846862    2    2    2    2
 14.44411892376067    3    3    3    3
 -0.005655250059235934    4    3    3    3
 0.03632236207542387    4    3    4    3
 14.37216243572664    4    4    3    3
 -0.004192649008518182    4    4    4    3
 14.47381372763128    4    4    4    4
 10.77330404779553    5    5    5    5
 0.01777353243849664    6    5    5    5
 0.03872313942105098    6    5    6    5
 10.72083901905747    6    6    5    5
 0.02054689292716095    6    6    6    5
 10.86485570813702    6    6    6    6
 11.18982413765307    7    7    7    7
 -0.003433245622678778    8    7    7    7
 0.0280200922997929    8    7    8    7
 11.09007981890941    8    8    7    7
 -0.002476180332198843    8    8    8    7
 11.12040896110797    8    8    8    8
 8.769919008544399    9    9    9    9
 0.007714009662270615   10    9    9    9
 0.03143461358381777   10    9   10    9
 8.652849013518729   10   10    9    9
 0.006120023281209953   10   10   10    9
 8.678841594707393   10   10   10   10
 10.67686490384673   11   11   11   11
 0.02116544248712066   12   11   11   11
 0.1042079886111716   12   11   12   11
 10.66119062897818   12   12   11   11
 -0.006266792104478697   12   12   12   11
 10.70458511976785   12   12   12   12
 13.00717997327314   13   13   13   13
 0.03896197519580018   14   13   13   13
 0.01279847762938356   14   13   14   13
 12.64540111525754   14   14   13   13
 0.00540919271790889   14   14   14   13
 12.6611120475594   14   14   14   14
 14.35825894516938   15   15   15   15
 -60.55793823639369    1    1  0  0
 -0.01460266570500094    2    1  0  0
 -64.77894310993474    2    2  0  0
 -58.41688968930056    3    3  0  0
 0.01530668225088389    4    3  0  0
 -58.58036357298671    4    4  0  0
 -45.60072499428207    5    5  0  0
 -0.06011550869062373    6    5  0  0
 -45.89547625203464    6    6  0  0
 -46.10722038529002    7    7  0  0
 -0.01514899060788471    8    7  0  0
 -46.29776153537769    8    8  0  0
 -37.41354602407547    9    9  0  0
 0.02526761288027888   10    9  0  0
 -37.70506260110603   10   10  0  0
 -24.67754589627902   11   11  0  0
 -0.009781423727405874   12   11  0  0
 -26.36242826161543   12   12  0  0
 -5.733897220795953   13   13  0  0
 -0.3249254132895393   14   13  0  0
 -0.8390842333255994   14   14  0  0
 -2.946495822272013   15   15  0  0
 -1747.734433463279  0  0  0  0
