 &FCI NORB=  32,NELEC=50,MS2=0,
  ORBSYM=1,1,1,1,1,1,1,1,1,1,1,1,1,1,1,1,1,1,1,1,1,1,1,1,1,1,1,1,1,1,1,1,
  ISYM=1,
 &END
 11.92732833367443    1    1    1    1
 -0.000564784180208658    2    1    1    1
 0.03095694077809616    2    1    2    1
 11.85692375425976    2    2    1    1
 0.0006752504907340164    2    2    2    1
 11.91410442429027    2    2    2    2
 0.00110744796284423    3    1    1    1
 -0.001200617845704756    3    1    2    1
 0.005466562956942742    3    1    2    2
 0.03019937762068955    3    1    3    1
 0.003847193895230688    3    2    1    1
 -0.002415446475831164    3    2    2    1
 0.0007732922879608807    3    2    2    2
 0.002305804272785393    3    2    3    1
 0.03327728941735231    3    2    3    2
 11.85649813959047    3    3    1    1
 -0.006050973831506483    3    3    2    1
 11.84500804621919    3    3    2    2
 0.0001720348443591023    3    3    3    1
 0.0008559832992346061    3    3    3    2
 11.90635014268361    3    3    3    3
 -6.042615828032692e-05    4    1    1    1
 0.002779140882979123    4    1    2    1
 0.008931795957174115    4    1    2    2
 0.002570333323726848    4    1    3    1
 -0.003449711809590797    4    1    3    2
 -0.00883716134419287    4    1    3    3
 0.02521161837388369    4    1    4    1
 -0.006374876513932809    4    2    1    1
 -0.003623112339373443    4    2    2    1
 -0.001080694298517352    4    2    2    2
 -0.007194730301803473    4    2    3    1
 -0.001809931167132959    4    2    3    2
 0.002476531193031469    4    2    3    3
 -0.002672747097364832    4    2    4    1
 0.02768641389470715    4    2    4    2
 -0.006137576259046838    4    3    1    1
 0.009560078406280056    4    3    2    1
 0.00109627943097041    4    3    2    2
 0.003913331719934177    4    3    3    1
 -0.002714174317440743    4    3    3    2
 -0.0007696905057450989    4    3    3    3
 0.002339661765305368    4    3    4    1
 -0.003706490830511902    4    3    4    2
 0.03160258040440419    4    3    4    3
 11.86340407415326    4    4    1    1
 0.004585007006739123    4    4    2    1
 11.85502977451444    4    4    2    2
 -0.003102947776529687    4    4    3    1
 0.01277636959454496    4    4    3    2
 11.84156647258898    4    4    3    3
 -1.972264964764537e-05    4    4    4    1
 -0.001705704682437038    4    4    4    2
 -0.002111795377222037    4    4    4    3
 11.90219884480764    4    4    4    4
 15.49367161992349    5    5    5    5
 0.02932458681814218    6    5    5    5
 0.005639493245734721    6    5    6    5
 15.08207602479497    6    6    5    5
 -0.01847333986908178    6    6    6    5
 15.30889452290939    6    6    6    6
 -0.004439892612810618    7    5    5    5
 -0.00057728367585556    7    5    6    5
 0.002657172694427143    7    5    6    6
 0.0005289429004293421    7    5    7    5
 -0.0003242916631129499    7    6    5    5
 0.0006169687222991048    7    6    6    5
 0.0001416274503429268    7    6    6    6
 -0.002385737610502079    7    6    7    5
 0.0267407977197459    7    6    7    6
 15.06067428559998    7    7    5    5
 -0.01576172515197072    7    7    6    5
 15.25634275924346    7    7    6    6
 0.003068382284945775    7    7    7    5
 9.40601109098221e-05    7    7    7    6
 15.3127331559964    7    7    7    7
 -0.0006274905824767463    8    5    5    5
 -0.0001373284535277552    8    5    6    5
 0.0005806118623046537    8    5    6    6
 5.748213692546836e-06    8    5    7    5
 2.316381831001043e-05    8    5    7    6
 0.0005138859579544155    8    5    7    7
 0.0003785814456400192    8    5    8    5
 -1.541656388419719e-05    8    6    5    5
 0.0001601772307318686    8    6    6    5
 5.48450729675817e-05    8    6    6    6
 2.395589000921741e-05    8    6    7    5
 -4.031799703321687e-05    8    6    7    6
 4.877483671429087e-05    8    6    7    7
 -0.002254648792111661    8    6    8    5
 0.02660322854247834    8    6    8    6
 0.0002939208131051448    8    7    5    5
 7.138328608960114e-05    8    7    6    5
 -0.0001334127969284646    8    7    6    6
 5.622465183689118e-05    8    7    7    5
 1.934339455983666e-06    8    7    7    6
 -0.0002053695747279982    8    7    7    7
 0.0002501428800722332    8    7    8    5
 5.562507452404352e-06    8    7    8    6
 0.02698644431739278    8    7    8    7
 15.06229491019813    8    8    5    5
 -0.01530009152606542    8    8    6    5
 15.25552090500576    8    8    6    6
 0.002487005885867876    8    8    7    5
 4.896302621107092e-05    8    8    7    6
 15.25743992847058    8    8    7    7
 0.0006027090779062848    8    8    8    5
 4.548096642967292e-05    8    8    8    6
 -0.000139353212448694    8    8    8    7
 15.31044551633031    8    8    8    8
 11.34373586216971    9    9    9    9
 0.1008702104472336   10    9    9    9
 0.04599996093295522   10    9   10    9
 10.90944700143688   10   10    9    9
 -0.09652227126283108   10   10   10    9
 11.3409286343648   10   10   10   10
 -0.006293010461449249   11    9    9    9
 0.0002587460531940718   11    9   10    9
 -0.008988514620698069   11    9   10   10
 0.0007194791413130544   11    9   11    9
 -0.0002149913826639479   11   10    9    9
 -0.01032781242635008   11   10   10    9
 0.04774157493758358   11   10   10   10
 -0.001874632429372472   11   10   11    9
 0.008698268284443764   11   10   11   10
 10.83272093400377   11   11    9    9
 -0.005579168959429989   11   11   10    9
 10.8442959380507   11   11   10   10
 0.01061940097085283   11   11   11    9
 -0.03976804577909248   11   11   11   10
 11.31070863969864   11   11   11   11
 0.005895998418813122   12    9    9    9
 0.0008769424527125903   12    9   10    9
 0.003685154433956635   12    9   10   10
 -0.0004628357763964626   12    9   11    9
 0.0008079838872651036   12    9   11   10
 -0.003772593412991786   12    9   11   11
 0.0004098412729084746   12    9   12    9
 0.001387823307848976   12   10    9    9
 0.005340296746869653   12   10   10    9
 -0.02372641417171059   12   10   10   10
 0.0007838295900269737   12   10   11    9
 -0.003680764578188133   12   10   11   10
 0.009359072929658836   12   10   11   11
 -0.0004173658180805704   12   10   12    9
 0.001932232668191575   12   10   12   10
 -0.01999315698788193   12   11    9    9
 0.001302334123024673   12   11   10    9
 -0.02333817198645822   12   11   10   10
 -0.001079457450771121   12   11   11    9
 0.003594247669963555   12   11   11   10
 -0.0504595215128272   12   11   11   11
 0.0005470343199980657   12   11   12    9
 -0.0008615929074915668   12   11   12   10
 0.01434731506361374   12   11   12   11
 10.75233219524687   12   12    9    9
 -0.002217596412315878   12   12   10    9
 10.75699868124313   12   12   10   10
 0.002948318097474766   12   12   11    9
 -0.009941903897869923   12   12   11   10
 10.88231293431621   12   12   11   11
 -0.002042264316109271   12   12   12    9
 0.00534029090216822   12   12   12   10
 0.01248455913504467   12   12   12   11
 10.93762040332105   12   12   12   12
 10.41907901081844   13   13   13   13
 -3.830382385662078e-05   14   13   13   13
 4.789357334773345e-05   14   13   14   13
 9.992739603750316   14   14   13   13
 -0.0003153475186011088   14   14   14   13
 10.28205774740307   14   14   14   14
 2.217408568444589e-06   15   13   13   13
 0.000659753753944671   15   13   14   13
 0.00192755315624557   15   13   14   14
 0.1144059304852616   15   13   15   13
 0.002188031158384251   15   14   13   13
 1.115993810103017e-05   15   14   14   13
 -0.002364412047114447   15   14   14   14
 8.457817992826398e-05   15   14   15   13
 0.0001664918198131287   15   14   15   14
 10.36173685737673   15   15   13   13
 -1.790390231807691e-05   15   15   14   13
 9.990192734782205   15   15   14   14
 0.002044900317800862   15   15   15   13
 0.002168188268033289   15   15   15   14
 10.35275673558082   15   15   15   15
 7.079575308370961e-05   16   13   13   13
 0.001489973476029697   16   13   14   13
 0.01010653941206665   16   13   14   14
 -1.488705631433713e-05   16   13   15   13
 -5.832687737181218e-06   16   13   15   14
 0.0003235514404828715   16   13   15   15
 0.1131483165807598   16   13   16   13
 0.00516682010865216   16   14   13   13
 3.851828060941398e-05   16   14   14   13
 -0.005882797980610119   16   14   14   14
 0.0002473282023756968   16   14   15   13
 0.0003150652065180607   16   14   15   14
 0.004368964764720228   16   14   15   15
 -6.635249443807893e-05   16   14   16   13
 0.0007123087979581547   16   14   16   14
 -0.0003942746306192975   16   15   13   13
 1.47977261845544e-05   16   15   14   13
 0.001023755898119931   16   15   14   14
 0.0003139561019885411   16   15   15   13
 0.0003742350158747234   16   15   15   14
 -0.0005133030500076057   16   15   15   15
 0.0006770976934790165   16   15   16   13
 0.000179492393475068   16   15   16   14
 0.02733196627785153   16   15   16   15
 10.36085719094882   16   16   13   13
 -2.335354158031298e-05   16   16   14   13
 9.99314957397613   16   16   14   14
 0.0008499424625488698   16   16   15   13
 0.001817880217509608   16   16   15   14
 10.29721654309016   16   16   15   15
 -0.0007121234164138566   16   16   16   13
 0.005055830019142974   16   16   16   14
 -0.0003628754716085624   16   16   16   15
 10.35135449158066   16   16   16   16
 9.763836040639452   17   17   17   17
 0.02695731365335269   18   17   17   17
 0.004351762543062182   18   17   18   17
 9.416240997433212   18   18   17   17
 -0.02393576814669363   18   18   18   17
 9.704442702951763   18   18   18   18
 0.001920429647076213   19   17   17   17
 0.0002523653577123883   19   17   18   17
 -0.0007939886149264356   19   17   18   18
 0.0002229956440236965   19   17   19   17
 0.001925929570725926   19   18   17   17
 8.555125269973875e-05   19   18   18   17
 -0.001294769372857479   19   18   18   18
 -0.002538024494613269   19   18   19   17
 0.04071551345046543   19   18   19   18
 9.407729164857592   19   19   17   17
 -0.01751002201040755   19   19   18   17
 9.646682530475161   19   19   18   18
 -0.001733455010645991   19   19   19   17
 0.01838318171021268   19   19   19   18
 9.743571844636572   19   19   19   19
 -0.005906825464566347   20   17   17   17
 -0.0006268284346828479   20   17   18   17
 0.00283019551203355   20   17   18   18
 -0.0001362374342322819   20   17   19   17
 0.0013744116491284   20   17   19   18
 0.005093436413153555   20   17   19   19
 0.0004138127806383959   20   17   20   17
 -0.0005285769722178913   20   18   17   17
 -0.001273030102793637   20   18   18   17
 0.007888213194026075   20   18   18   18
 0.001224788469088415   20   18   19   17
 -0.02135598642328606   20   18   19   18
 -0.02284489336081618   20   18   19   19
 -0.002327170253341671   20   18   20   17
 0.03335233335965223   20   18   20   18
 -0.001234963274800548   20   19   17   17
 0.002618209153919715   20   19   18   17
 -0.03025929551748803   20   19   18   18
 -0.001897618610846992   20   19   19   17
 0.03418161519762503   20   19   19   18
 0.02209655687776935   20   19   19   19
 0.001345713748977885   20   19   20   17
 -0.02701788293072345   20   19   20   18
 0.07500826474583089   20   19   20   19
 9.407922734662472   20   20   17   17
 -0.01604513065291359   20   20   18   17
 9.628870529731655   20   20   18   18
 -0.001765734759010795   20   20   19   17
 0.01769165711598416   20   20   19   18
 9.707350394579358   20   20   19   19
 0.006266150398113277   20   20   20   17
 -0.04100945860480347   20   20   20   18
 0.0372596080476871   20   20   20   19
 9.730442739121539   20   20   20   20
 14.52291222982522   21   21   21   21
 -0.02965395406122019   22   21   21   21
 0.02567815618930776   22   21   22   21
 14.42218018858788   22   22   21   21
 0.006401186188576852   22   22   22   21
 14.45789571045494   22   22   22   22
 0.07312234645737473   23   21   21   21
 -0.03948320699823933   23   21   22   21
 -0.001917594114355579   23   21   22   22
 0.08955514673788861   23   21   23   21
 -0.03895737515211643   23   22   21   21
 0.01488476426256135   23   22   22   21
 -0.002710498794760168   23   22   22   22
 -0.03496553252351903   23   22   23   21
 0.02702170644796553   23   22   23   22
 14.42698613682161   23   23   21   21
 -0.007847529067123535   23   23   22   21
 14.42066593506581   23   23   22   22
 0.01650594706574332   23   23   23   21
 -0.01271302088155592   23   23   23   22
 14.43437128376089   23   23   23   23
 -0.01126937747818427   24   21   21   21
 0.01783155970106336   24   21   22   21
 -0.00226014706450159   24   21   22   22
 -0.04517451878400364   24   21   23   21
 0.02142370320277102   24   21   23   22
 -0.02922208417045765   24   21   23   23
 0.0768042825901126   24   21   24   21
 0.007996516537488344   24   22   21   21
 -0.008017111577847191   24   22   22   21
 -0.009494381674048645   24   22   22   22
 0.0175398890435717   24   22   23   21
 -0.006072521791516445   24   22   23   22
 -0.0005037806965829655   24   22   23   23
 -0.01024265709153989   24   22   24   21
 0.01430887394156527   24   22   24   22
 -0.07264907793968231   24   23   21   21
 0.0193869023029263   24   23   22   21
 -0.004418003150740014   24   23   22   22
 -0.03732728214160212   24   23   23   21
 0.01213100558558017   24   23   23   22
 0.01078086478101589   24   23   23   23
 -0.04687499958757195   24   23   24   21
 -0.000560142812425243   24   23   24   22
 0.1024764868555909   24   23   24   23
 14.40868657681368   24   24   21   21
 0.01530939275366644   24   24   22   21
 14.41733836863101   24   24   22   22
 -0.0410380320427406   24   24   23   21
 0.01353278015034198   24   24   23   22
 14.39520845161123   24   24   23   23
 0.06794182593971543   24   24   24   21
 -0.01916359298451964   24   24   24   22
 -0.05132495336620793   24   24   24   23
 14.48809037686941   24   24   24   24
 13.07020661877272   25   25   25   25
 0.01563439140520173   26   25   25   25
 0.01436766730492962   26   25   26   25
 12.94462666971218   26   26   25   25
 0.0003704108664742307   26   26   26   25
 12.94549316276558   26   26   26   26
 -0.05936746834390094   27   25   25   25
 -0.003489375681301647   27   25   26   25
 -0.02769098837189923   27   25   26   26
 0.02376934418855259   27   25   27   25
 -0.02563776959477074   27   26   25   25
 -0.009426898104788708   27   26   26   25
 -0.02737968994154213   27   26   26   26
 0.002101620799523949   27   26   27   25
 0.04538208556558269   27   26   27   26
 12.90192533020691   27   27   25   25
 -0.01356120531798857   27   27   26   25
 12.89722955787435   27   27   26   26
 -0.01829504793465112   27   27   27   25
 0.02185984284216004   27   27   27   26
 12.92542748255044   27   27   27   27
 -0.01370901179119586   28   25   25   25
 0.008298115414367348   28   25   26   25
 -0.01457437984990916   28   25   26   26
 0.006121226522586229   28   25   27   25
 -0.009028902661538966   28   25   27   26
 -0.02078712873015134   28   25   27   27
 0.01791927994829309   28   25   28   25
 0.05842836591214993   28   26   25   25
 0.007997678372094256   28   26   26   25
 0.05515638267338771   28   26   26   26
 -0.01428110410672893   28   26   27   25
 -0.04278779904221001   28   26   27   26
 0.002980801981711475   28   26   27   27
 -0.0002305361978217442   28   26   28   25
 0.06858608952389958   28   26   28   26
 -0.04507744187722921   28   27   25   25
 -0.003394751646428702   28   27   26   25
 -0.04792310340801819   28   27   26   26
 0.01397158985247142   28   27   27   25
 0.01507914745924764   28   27   27   26
 -0.01389454820865623   28   27   27   27
 0.008217021809626884   28   27   28   25
 -0.03345855180449849   28   27   28   26
 0.03732846369955308   28   27   28   27
 12.90693617036857   28   28   25   25
 -0.01352320954976139   28   28   26   25
 12.91217694194857   28   28   26   26
 -0.01633023027105398   28   28   27   25
 0.001689502009007044   28   28   27   26
 12.91349758468441   28   28   27   27
 -0.02452502136757147   28   28   28   25
 0.005004591709818321   28   28   28   26
 -0.01801506973002442   28   28   28   27
 12.94471940486943   28   28   28   28
 10.23332069839704   29   29   29   29
 0.04261684353640257   30   29   29   29
 0.1059017984932854   30   29   30   29
 10.22680013725722   30   30   29   29
 0.09069681296138044   30   30   30   29
 10.26624166838407   30   30   30   30
 0.03525932657715641   31   29   29   29
 0.001722646623678378   31   29   30   29
 0.01186531277073489   31   29   30   30
 0.04621926038165181   31   29   31   29
 -0.0004183370008230391   31   30   29   29
 -0.05235100788263206   31   30   30   29
 -0.03891276743837064   31   30   30   30
 0.02778447032591452   31   30   31   29
 0.06051792977306051   31   30   31   30
 10.27367033748883   31   31   29   29
 0.1110287846638474   31   31   30   29
 10.29842341859933   31   31   30   30
 0.07914266895380663   31   31   31   29
 -0.01892466908581811   31   31   31   30
 10.47457867067742   31   31   31   31
 -0.02458553687124987   32   29   29   29
 -0.01913710323139927   32   29   30   29
 -0.02394039137213914   32   29   30   30
 -0.002828907768543736   32   29   31   29
 -0.001990038298742856   32   29   31   30
 -0.01604290129684479   32   29   31   31
 0.03545995109527435   32   29   32   29
 -0.02466768932637031   32   30   29   29
 -0.004251168180443546   32   30   30   29
 -0.01491680874714621   32   30   30   30
 -0.00568761286067929   32   30   31   29
 -0.01391580051147999   32   30   31   30
 -0.005440530826487114   32   30   31   31
 0.03807900947897601   32   30   32   29
 0.05007620434571751   32   30   32   30
 -0.006011733714200911   32   31   29   29
 -0.004550755001044829   32   31   30   29
 -0.01135651640842687   32   31   30   30
 0.004048915619980007   32   31   31   29
 0.001575601708025605   32   31   31   30
 0.00200896499129375   32   31   31   31
 0.01146413212216901   32   31   32   29
 0.003720429118273556   32   31   32   30
 0.03154307337226826   32   31   32   31
 10.24196764555625   32   32   29   29
 0.1476600682548034   32   32   30   29
 10.29993271666987   32   32   30   30
 0.05082292379040821   32   32   31   29
 -0.0581899345674631   32   32   31   30
 10.42741612559784   32   32   31   31
 0.01400409868593459   32   32   32   29
 0.04718556534716256   32   32   32   30
 0.01082617642419992   32   32   32   31
 10.57672939637853   32   32   32   32
 -104.068406919953    1    1  0  0
 0.004963517490345188    2    1  0  0
 -103.890683050646    2    2  0  0
 -0.01330529935265849    3    1  0  0
 -0.02472501279631108    3    2  0  0
 -103.7614931874986    3    3  0  0
 -0.006723366203585761    4    1  0  0
 -0.05618945877216924    4    2  0  0
 -0.03274551896474848    4    3  0  0
 -103.6086143210855    4    4  0  0
 -130.5157969206326    5    5  0  0
 -0.3482772808284852    6    5  0  0
 -123.3899365072316    6    6  0  0
 0.06077184269231551    7    5  0  0
 0.04247324951828609    7    6  0  0
 -123.0258617709585    7    7  0  0
 0.004459990622701347    8    5  0  0
 -0.0102242183256612    8    6  0  0
 0.007106414197015922    8    7  0  0
 -122.9971896423715    8    8  0  0
 -94.22835150772255    9    9  0  0
 0.09251563799827654   10    9  0  0
 -94.30335317695915   10   10  0  0
 -0.03222046408314577   11    9  0  0
 0.1192302078863202   11   10  0  0
 -95.28275247712997   11   11  0  0
 0.01548441391652974   12    9  0  0
 -0.01647342384080733   12   10  0  0
 0.4575188136410085   12   11  0  0
 -91.88187692771734   12   12  0  0
 -84.2154397404108   13   13  0  0
 0.0002722431251283935   14   13  0  0
 -88.00691474868918   14   14  0  0
 0.03040649230818722   15   13  0  0
 0.0446338716958521   15   14  0  0
 -83.26100399887657   15   15  0  0
 -0.2568471793050766   16   13  0  0
 0.09667736409040703   16   14  0  0
 -0.01695782121180699   16   15  0  0
 -83.29151883417315   16   16  0  0
 -79.10501245178624   17   17  0  0
 0.3350134508941749   18   17  0  0
 -83.15788140473217   18   18  0  0
 0.01567558277778518   19   17  0  0
 -0.03795852334890179   19   18  0  0
 -82.35616727593974   19   19  0  0
 -0.03918257557405314   20   17  0  0
 -0.1368103902219241   20   18  0  0
 0.4428919062664658   20   19  0  0
 -82.02801082253397   20   20  0  0
 -118.2891563083248   21   21  0  0
 -0.1707345413221621   22   21  0  0
 -118.5154884150974   22   22  0  0
 0.1375188571668705   23   21  0  0
 0.02258644654649518   23   22  0  0
 -118.1592126078779   23   23  0  0
 0.03221443765133769   24   21  0  0
 0.1436483908056153   24   22  0  0
 -0.04379735443757292   24   23  0  0
 -118.0087344100643   24   24  0  0
 -31.65321928405739   25   25  0  0
 0.1350855777340126   26   25  0  0
 -30.69911530366056   26   26  0  0
 0.6353899767073358   27   25  0  0
 0.2228938294665564   27   26  0  0
 -30.13469735301963   27   27  0  0
 0.4796396655379004   28   25  0  0
 -0.8751896699653849   28   26  0  0
 0.9010819265381902   28   27  0  0
 -30.21917939946898   28   28  0  0
 -6.483058367222004   29   29  0  0
 -1.398568966975071   30   29  0  0
 -6.839405068519762   30   30  0  0
 -0.6752960570834657   31   29  0  0
 0.2663604627609997   31   30  0  0
 -8.021219594927446   31   31  0  0
 0.1891175996661862   32   29  0  0
 0.05666356131436087   32   30  0  0
 -0.01546648094180365   32   31  0  0
 -7.845873448497191   32   32  0  0
 -5007.797869378561  0  0  0  0
