 &FCI NORB=  24,NELEC=39,MS2=3,
  ORBSYM=1,1,1,1,1,1,1,1,1,1,1,1,1,1,1,1,1,1,1,1,1,1,1,1,
  ISYM=1,
 &END
 10.84407146952293    1    1    1    1
 0.0001070885319375704    2    1    1    1
 0.02724598420913272    2    1    2    1
 10.78040810659556    2    2    1    1
 4.972153655521125e-05    2    2    2    1
 10.82076788888113    2    2    2    2
 0.001237204167268346    3    1    1    1
 0.0003832217086688625    3    1    2    1
 0.003002491852587543    3    1    2    2
 0.02654505526545588    3    1    3    1
 -0.0002059394840522311    3    2    1    1
 9.358216074501941e-05    3    2    2    1
 -0.0004248468400563427    3    2    2    2
 0.0005630090178794832    3    2    3    1
 0.03157922674825908    3    2    3    2
 10.77489232948632    3    3    1    1
 -0.003028549268205961    3    3    2    1
 10.75080483078289    3    3    2    2
 0.0009278398985277832    3    3    3    1
 -0.000562279662202507    3    3    3    2
 10.80643758721444    3    3    3    3
 -0.001549455752228661    4    1    1    1
 -0.0001869195256992775    4    1    2    1
 -0.01316775375400349    4    1    2    2
 -0.0001082816001379037    4    1    3    1
 0.001738176309882416    4    1    3    2
 0.01028856147349391    4    1    3    3
 0.0285203051780093    4    1    4    1
 0.001447119894081627    4    2    1    1
 0.009790407937509522    4    2    2    1
 -0.0005540616502886524    4    2    2    2
 -0.0009961469969541924    4    2    3    1
 0.001824531351792035    4    2    3    2
 -0.003601568395849851    4    2    3    3
 -4.482088893048564e-05    4    2    4    1
 0.02906966367815549    4    2    4    2
 -0.00390781459877225    4    3    1    1
 -0.001659765898820395    4    3    2    1
 -0.0055298551196842    4    3    2    2
 -0.009905655249250363    4    3    3    1
 0.001794585248253551    4    3    3    2
 -0.004241588546963789    4    3    3    3
 -0.0003589608617047282    4    3    4    1
 0.0002825388760454476    4    3    4    2
 0.02978723003971256    4    3    4    3
 10.72322982955872    4    4    1    1
 0.001737855913882125    4    4    2    1
 10.73516597629487    4    4    2    2
 -9.466549561777671e-06    4    4    3    1
 -0.0006502706705368271    4    4    3    2
 10.72815645957077    4    4    3    3
 -0.0004322826224128547    4    4    4    1
 -0.0002921205740267392    4    4    4    2
 -0.002235565992405104    4    4    4    3
 10.77170929313392    4    4    4    4
 14.79968750955074    5    5    5    5
 0.0005457414894285517    6    5    5    5
 0.001297473289111228    6    5    6    5
 14.40590778135415    6    6    5    5
 -0.0004091449966752442    6    6    6    5
 14.63340038854734    6    6    6    6
 0.001880497176761676    7    5    5    5
 3.986710497595557e-06    7    5    6    5
 -0.001093260582077697    7    5    6    6
 0.0001730912206793178    7    5    7    5
 0.0001997500944453077    7    6    5    5
 -0.0001876976015076987    7    6    6    5
 0.0002134471037297488    7    6    6    6
 -6.937963197665899e-05    7    6    7    5
 0.02693265581566888    7    6    7    6
 14.38622665089043    7    7    5    5
 -0.0003670818163727368    7    7    6    5
 14.58125011818618    7    7    6    6
 -0.001493601236320499    7    7    7    5
 4.552710411884729e-05    7    7    7    6
 14.63807956467006    7    7    7    7
 -0.01812103836842489    8    5    5    5
 -2.900616646726484e-05    8    5    6    5
 0.008993094012696646    8    5    6    6
 -0.0001504804182346349    8    5    7    5
 -1.885076479196546e-05    8    5    7    6
 0.009868017143145015    8    5    7    7
 0.001660599151079525    8    5    8    5
 0.0003257462616919437    8    6    5    5
 0.001353289730676555    8    6    6    5
 -0.0001062403245706022    8    6    6    6
 -1.378098450402688e-05    8    6    7    5
 2.157257871008017e-05    8    6    7    6
 -0.0001311724463467504    8    6    7    7
 -7.136323058253837e-05    8    6    8    5
 0.02657592270088694    8    6    8    6
 -6.825393481833148e-05    8    7    5    5
 -1.501318402100548e-05    8    7    6    5
 -4.311948984907286e-05    8    7    6    6
 0.001355996708039302    8    7    7    5
 -3.020808891803948e-05    8    7    7    6
 -0.0001230301307827364    8    7    7    7
 -0.0001124507974294689    8    7    8    5
 2.512696525003842e-05    8    7    8    6
 0.02719439793255931    8    7    8    7
 14.3872586869286    8    8    5    5
 -0.0003449407077726931    8    8    6    5
 14.58029623827435    8    8    6    6
 -0.001094262289399337    8    8    7    5
 0.0001124824710310932    8    8    7    6
 14.58309680357997    8    8    7    7
 0.01270207011964763    8    8    8    5
 -0.0001220332603655144    8    8    8    6
 -8.915435561864665e-05    8    8    8    7
 14.63659818680022    8    8    8    8
 16.62666300408148    9    9    9    9
 -0.03632980017453423   10    9    9    9
 0.003406975949808796   10    9   10    9
 16.01206304749098   10   10    9    9
 0.01000521617438111   10   10   10    9
 16.15799591121533   10   10   10   10
 -0.02359278193514221   11    9    9    9
 0.002941279907135146   11    9   10    9
 0.008989307557652551   11    9   10   10
 0.00303539798867566   11    9   11    9
 0.06828880384107616   11   10    9    9
 0.003855514822014457   11   10   10    9
 0.0295251603993556   11   10   10   10
 0.01027672176604226   11   10   11    9
 0.1272622527607892   11   10   11   10
 16.05886795208149   11   11    9    9
 0.0132246488193787   11   11   10    9
 16.1807531009539   11   11   10   10
 0.01720392251493316   11   11   11    9
 0.1306677227010571   11   11   11   10
 16.29007737950605   11   11   11   11
 0.0004428020576929233   12    9    9    9
 -3.315553786481531e-05   12    9   10    9
 1.766545819862111e-05   12    9   10   10
 -2.898909582649207e-05   12    9   11    9
 -2.578191820036328e-06   12    9   11   10
 1.286386674835801e-05   12    9   11   11
 1.263192153123843e-06   12    9   12    9
 0.000888976832904737   12   10    9    9
 0.0001339214888701579   12   10   10    9
 0.004405881779022503   12   10   10   10
 1.328993424653396e-05   12   10   11    9
 -0.001379286196653644   12   10   11   10
 0.003244301687556975   12   10   11   11
 2.412822294588803e-05   12   10   12    9
 0.001220073483263226   12   10   12   10
 -0.001101836702185572   12   11    9    9
 -0.0001061733745752841   12   11   10    9
 -0.003694609154489035   12   11   10   10
 -2.452451118407228e-05   12   11   11    9
 0.0009523641138862531   12   11   11   10
 -0.002922770287007077   12   11   11   11
 -1.634240493648003e-05   12   11   12    9
 -0.0009944944268914973   12   11   12   10
 0.0008622095441652839   12   11   12   11
 15.92394444582409   12   12    9    9
 0.003538826532307348   12   12   10    9
 16.01677040152184   12   12   10   10
 0.0005543173871771362   12   12   11    9
 -0.038498721469436   12   12   11   10
 15.98631864948243   12   12   11   11
 -0.0004645650138754103   12   12   12    9
 -0.01685246258124629   12   12   12   10
 0.01389121006846113   12   12   12   11
 16.43347599726037   12   12   12   12
 13.29556003833737   13   13   13   13
 -0.0029742648285368   14   13   13   13
 0.0300258788385686   14   13   14   13
 13.22441177834783   14   14   13   13
 -0.003119000859868774   14   14   14   13
 13.2744117692757   14   14   14   14
 0.002185447408406965   15   13   13   13
 0.0001457528099297997   15   13   14   13
 0.001867806403215721   15   13   14   14
 0.0302047587613599   15   13   15   13
 0.00218305589684581   15   14   13   13
 0.0001485257244564523   15   14   14   13
 0.002524868277829985   15   14   14   14
 -0.0002371733502948279   15   14   15   13
 0.02903623399055654   15   14   15   14
 13.22709609851577   15   15   13   13
 -0.002580337681946005   15   15   14   13
 13.21954266300434   15   15   14   14
 0.002388323229224307   15   15   15   13
 0.002459880866368684   15   15   15   14
 13.28057008937797   15   15   15   15
 0.01642017901132194   16   13   13   13
 0.00202692889580812   16   13   14   13
 0.01443356192483208   16   13   14   14
 -0.001531415707651034   16   13   15   13
 0.0001538636829619842   16   13   15   14
 0.01456128383834941   16   13   15   15
 0.001630051187095764   16   13   16   13
 0.02728989877796913   16   14   13   13
 0.0009387345742672127   16   14   14   13
 0.03103311273578168   16   14   14   14
 0.0002465140181458589   16   14   15   13
 -0.001358331545483129   16   14   15   14
 0.02694016503976769   16   14   15   15
 0.002309830279498866   16   14   16   13
 0.004522180036026646   16   14   16   14
 -0.02051339504384701   16   15   13   13
 0.0002542036499117256   16   15   14   13
 -0.02003780222880436   16   15   14   14
 0.00108451655655296   16   15   15   13
 0.001989881720748645   16   15   15   14
 -0.02352781756728083   16   15   15   15
 -0.001730328684995176   16   15   16   13
 -0.003119670821889971   16   15   16   14
 0.002700952880747588   16   15   16   15
 12.8592235985404   16   16   13   13
 0.002016061375901821   16   16   14   13
 12.86031277187828   16   16   14   14
 -0.001436703446455159   16   16   15   13
 -0.001778015851780506   16   16   15   14
 12.85929317072147   16   16   15   15
 -0.01544387795745175   16   16   16   13
 -0.0270587186507731   16   16   16   14
 0.02022802199170794   16   16   16   15
 13.23027256156469   16   16   16   16
 15.84418463673901   17   17   17   17
 0.0021148714026902   18   17   17   17
 0.01952509167629781   18   17   18   17
 15.737881169558   18   18   17   17
 0.001170483316039611   18   18   18   17
 15.73591315735741   18   18   18   18
 0.0004191259426832106   19   17   17   17
 -7.414710043959918e-05   19   17   18   17
 0.0003094766361917227   19   17   18   18
 0.01950466262065291   19   17   19   17
 -0.0009686839030152399   19   18   17   17
 1.897916607901477e-05   19   18   18   17
 -0.0007631527317576454   19   18   18   18
 7.36622017956563e-05   19   18   19   17
 0.01539597645917502   19   18   19   18
 15.73780611129896   19   19   17   17
 0.001042989928996794   19   19   18   17
 15.70505238490351   19   19   18   18
 0.0003597819690300259   19   19   19   17
 -0.0007595813807487715   19   19   19   18
 15.73580985850202   19   19   19   19
 -0.0001495655390117762   20   17   17   17
 -0.001120942389175616   20   17   18   17
 -0.0004436242916258579   20   17   18   18
 0.009646936598713731   20   17   19   17
 0.0001562130808405043   20   17   19   18
 -0.0003169293653708074   20   17   19   19
 0.01712310336311994   20   17   20   17
 -0.0113671310481101   20   18   17   17
 -0.0002119330020115389   20   18   18   17
 -0.00609564451966179   20   18   18   18
 0.0001123705052776155   20   18   19   17
 0.003563323985358401   20   18   19   18
 -0.005399635217561713   20   18   19   19
 4.524261625761121e-06   20   18   20   17
 0.01406828085108404   20   18   20   18
 0.09978528145769332   20   19   17   17
 0.001601263467935598   20   19   18   17
 0.04950693963331943   20   19   18   18
 0.0005244284733828351   20   19   19   17
 -0.000981637135244475   20   19   19   18
 0.0561385816018185   20   19   19   19
 0.0006511892609267592   20   19   20   17
 -0.01846589932803371   20   19   20   18
 0.1646749560732071   20   19   20   19
 15.6935879087514   20   20   17   17
 0.0005923953768813134   20   20   18   17
 15.66989556774467   20   20   18   18
 -3.5558650795341e-05   20   20   19   17
 -0.003608398756250611   20   20   19   18
 15.69554912052831   20   20   19   19
 -0.0006696273088088857   20   20   20   17
 0.0008123412624412747   20   20   20   18
 -0.002885553755469474   20   20   20   19
 15.7186284501044   20   20   20   20
 9.949255816813224   21   21   21   21
 -0.02072564451596831   22   21   21   21
 0.05127827584305813   22   21   22   21
 9.901162162502086   22   22   21   21
 -0.02032354611839995   22   22   22   21
 9.945729885278096   22   22   22   22
 -0.02112259537001503   23   21   21   21
 0.0446598016525797   23   21   22   21
 -0.01757675589365792   23   21   22   22
 0.05471196448097913   23   21   23   21
 0.01129640888667649   23   22   21   21
 -0.00165685647724292   23   22   22   21
 -0.0008323972449058546   23   22   22   22
 -0.001552458935247538   23   22   23   21
 0.01551053144123691   23   22   23   22
 9.900385866044465   23   23   21   21
 -0.0173195309508247   23   23   22   21
 9.913460645464273   23   23   22   22
 -0.01983213049335992   23   23   23   21
 -0.0008619772276462385   23   23   23   22
 9.943148386894723   23   23   23   23
 0.001946638584200156   24   21   21   21
 0.002157495452563881   24   21   22   21
 0.001502877813627841   24   21   22   22
 0.002021810075297155   24   21   23   21
 -1.512752475584141e-05   24   21   23   22
 0.001424327075043187   24   21   23   23
 0.005737078001862345   24   21   24   21
 0.008553206961305916   24   22   21   21
 0.0002944329674739244   24   22   22   21
 0.009888840785368986   24   22   22   22
 0.0001073547634798046   24   22   23   21
 0.000204647163323658   24   22   23   22
 0.008794192680337409   24   22   23   23
 -0.001168776155286548   24   22   24   21
 0.007703568209259559   24   22   24   22
 0.00506775061489978   24   23   21   21
 -3.336539665037947e-05   24   23   22   21
 0.005330985203595155   24   23   22   22
 0.0002261801908938382   24   23   23   21
 0.0004940877158518655   24   23   23   22
 0.005705050825168014   24   23   23   23
 -0.001031016350817691   24   23   24   21
 0.00051573552752732   24   23   24   22
 0.008442499191480147   24   23   24   23
 9.728713761055662   24   24   21   21
 -0.03498903677714887   24   24   22   21
 9.723236933816763   24   24   22   22
 -0.03605426346350902   24   24   23   21
 0.0005897023993446295   24   24   23   22
 9.724635545374598   24   24   23   23
 -0.003398934556963671   24   24   24   21
 -0.00303742554148196   24   24   24   22
 -0.002129898560915571   24   24   24   23
 9.799165359325055   24   24   24   24
 -94.53816466377459    1    1  0  0
 0.00779412204666688    2    1  0  0
 -94.11380221322622    2    2  0  0
 -0.02328344328825152    3    1  0  0
 0.003102111450412335    3    2  0  0
 -93.97885205323111    3    3  0  0
 -0.007743065789543307    4    1  0  0
 0.01196789963819505    4    2  0  0
 0.05159723457219522    4    3  0  0
 -93.46443085689864    4    4  0  0
 -123.2152036958144    5    5  0  0
 -0.005842491747547074    6    5  0  0
 -117.3480896899875    6    6  0  0
 -0.01802332191347084    7    5  0  0
 -0.0165875007609754    7    6  0  0
 -117.0347168071933    7    7  0  0
 0.185638317944628    8    5  0  0
 -0.006456110660190073    8    6  0  0
 -0.01085546519061385    8    7  0  0
 -116.9271694580928    8    8  0  0
 -130.7383581878544    9    9  0  0
 -0.01414252410922117   10    9  0  0
 -130.4499490862427   10   10  0  0
 -0.04230156237278865   11    9  0  0
 -0.6434766976178308   11   10  0  0
 -130.7677325805153   11   11  0  0
 -0.0006635066263216132   12    9  0  0
 -0.02536945075110824   12   10  0  0
 0.0251216119901   12   11  0  0
 -128.4637252322683   12   12  0  0
 -104.2771589202468   13   13  0  0
 -0.02118342092942755   14   13  0  0
 -104.1149572198156   14   14  0  0
 0.01284514676474183   15   13  0  0
 0.01922655349820697   15   14  0  0
 -104.1085083666269   15   15  0  0
 0.09408150893680976   16   13  0  0
 0.1895913167649657   16   14  0  0
 -0.141014396054128   16   15  0  0
 -106.5996957031505   16   16  0  0
 -109.5362984264935   17   17  0  0
 -0.003655881488566242   18   17  0  0
 -109.1415856279047   18   18  0  0
 0.002990861575905467   19   17  0  0
 -0.007457266770622454   19   18  0  0
 -109.0749400363988   19   19  0  0
 0.01096201859455624   20   17  0  0
 -0.04730759874430419   20   18  0  0
 0.381503858440256   20   19  0  0
 -109.1882228812246   20   20  0  0
 -5.190413236798054   21   21  0  0
 0.2870427516170457   22   21  0  0
 -4.659139163093081   22   22  0  0
 0.2865239569552634   23   21  0  0
 0.02634271919819317   23   22  0  0
 -4.639441755923282   23   23  0  0
 0.01455209517954321   24   21  0  0
 -0.024488281541261   24   22  0  0
 -0.02669768512558793   24   23  0  0
 -3.758971113977036   24   24  0  0
 -4806.440770200234  0  0  0  0
