 &FCI NORB=  27,NELEC=42,MS2=0,
  ORBSYM=1,1,1,1,1,1,1,1,1,1,1,1,1,1,1,1,1,1,1,1,1,1,1,1,1,1,1,
  ISYM=1,
 &END
 12.09449584777785    1    1    1    1
 0.000771221780040756    2    1    1    1
 0.01782922259644405    2    1    2    1
 12.03734610638425    2    2    1    1
 0.0006985229754896461    2    2    2    1
 12.05426445181271    2    2    2    2
 -0.0001753302226267191    3    1    1    1
 -0.001412556479131547    3    1    2    1
 -0.003302348455096972    3    1    2    2
 0.02934730837405395    3    1    3    1
 0.002126623624671982    3    2    1    1
 0.00129840036293549    3    2    2    1
 -0.0001710540795479608    3    2    2    2
 -0.0003229313265774359    3    2    3    1
 0.02848039998949676    3    2    3    2
 12.01872936441899    3    3    1    1
 0.001335380199518987    3    3    2    1
 11.99688421944161    3    3    2    2
 7.419481449523913e-05    3    3    3    1
 -0.001686301966631176    3    3    3    2
 12.06467527986165    3    3    3    3
 -0.0006591013740057797    4    1    1    1
 -0.0001772647236645253    4    1    2    1
 -0.003359216506626331    4    1    2    2
 -0.0002847283640982107    4    1    3    1
 0.009640109165242742    4    1    3    2
 0.001757549463718208    4    1    3    3
 0.03139497498656241    4    1    4    1
 0.001923464453314546    4    2    1    1
 0.001495502498852212    4    2    2    1
 0.001610043624050916    4    2    2    2
 -0.00891282762395311    4    2    3    1
 -0.0007513584836469668    4    2    3    2
 0.01152194326647187    4    2    3    3
 -0.0001665332179406048    4    2    4    1
 0.0288851576521229    4    2    4    2
 0.0004219222459480375    4    3    1    1
 -0.001826453841864282    4    3    2    1
 0.0007984213804912951    4    3    2    2
 -0.001613087807671202    4    3    3    1
 -0.003398331824460682    4    3    3    2
 0.0004684196285112034    4    3    3    3
 0.003495383455037535    4    3    4    1
 0.0006675757010509139    4    3    4    2
 0.02482858732769299    4    3    4    3
 12.00969488587282    4    4    1    1
 0.001208597786887773    4    4    2    1
 11.99667848645834    4    4    2    2
 -0.005930203432273866    4    4    3    1
 -0.002000738158508343    4    4    3    2
 12.00837000589386    4    4    3    3
 -0.0006555057793177447    4    4    4    1
 0.002804813198628466    4    4    4    2
 0.0004397035006163848    4    4    4    3
 12.05290799664172    4    4    4    4
 10.15481726530151    5    5    5    5
 -0.006303984232657083    6    5    5    5
 0.001084248261174273    6    5    6    5
 9.753688107546678    6    6    5    5
 0.002102353035674888    6    6    6    5
 9.988162446303438    6    6    6    6
 0.01284726779471204    7    5    5    5
 -0.0003223546948331274    7    5    6    5
 -0.006760925470526707    7    5    6    6
 0.0008043037639776342    7    5    7    5
 -0.000319265219413486    7    6    5    5
 -0.001116429212988206    7    6    6    5
 0.0003646790756978881    7    6    6    6
 0.0001642292673139584    7    6    7    5
 0.02658720127136949    7    6    7    6
 9.734615007274497    7    7    5    5
 0.001617106219212357    7    7    6    5
 9.936606599830615    7    7    6    6
 -0.00889806268140262    7    7    7    5
 0.00057896232391654    7    7    7    6
 9.993220144178105    7    7    7    7
 0.002697375719020832    8    5    5    5
 -4.306981512142393e-05    8    5    6    5
 -0.001607600223550465    8    5    6    6
 0.0001443168777042055    8    5    7    5
 -1.833205766400869e-05    8    5    7    6
 -0.001626006747555643    8    5    7    7
 0.0001690924220332566    8    5    8    5
 0.0001906773100585173    8    6    5    5
 -0.0003201674213147091    8    6    6    5
 -0.0001172713804403744    8    6    6    6
 -3.464935942204568e-06    8    6    7    5
 2.938651071334064e-05    8    6    7    6
 -5.529789663982522e-05    8    6    7    7
 0.0001823945510789262    8    6    8    5
 0.02658460393461377    8    6    8    6
 -0.0001324539093483736    8    7    5    5
 -4.347926620155463e-05    8    7    6    5
 0.0001578197319403101    8    7    6    6
 -0.0002078948123953058    8    7    7    5
 -1.628001168106236e-06    8    7    7    6
 0.0002583297400275581    8    7    7    7
 -0.0009129182504128103    8    7    8    5
 5.646364260036613e-05    8    7    8    6
 0.02694018868193652    8    7    8    7
 9.735118695090724    8    8    5    5
 0.001764153018348121    8    8    6    5
 9.936006781966197    8    8    6    6
 -0.007087917657487012    8    8    7    5
 0.0003814740808943066    8    8    7    6
 9.938246648373093    8    8    7    7
 -0.001998070432025005    8    8    8    5
 -7.089722167407227e-05    8    8    8    6
 0.0002094670359845995    8    8    8    7
 9.991316270890554    8    8    8    8
 13.9568059767885    9    9    9    9
 -0.09615370893476617   10    9    9    9
 0.04198825198612803   10    9   10    9
 13.50939820733379   10   10    9    9
 0.09721672614907292   10   10   10    9
 13.96961170853249   10   10   10   10
 -0.0008200953878464755   11    9    9    9
 0.0004107855415580466   11    9   10    9
 0.0009329851955252364   11    9   10   10
 0.0001799093460955315   11    9   11    9
 0.0001399373797212814   11   10    9    9
 -0.0004034559953643032   11   10   10    9
 -0.001717749320611093   11   10   10   10
 -1.196323454895914e-05   11   10   11    9
 1.135836978182415e-05   11   10   11   10
 13.35896376124035   11   11    9    9
 0.0004180920227174999   11   11   10    9
 13.35747293386606   11   11   10   10
 0.0003742417697204484   11   11   11    9
 0.0004897566188880901   11   11   11   10
 13.54891907338423   11   11   11   11
 -0.02748297903867029   12    9    9    9
 0.002929731871109848   12    9   10    9
 -0.006403329931632672   12    9   10   10
 0.0002134893542108691   12    9   11    9
 -3.309816127290325e-05   12    9   11   10
 0.006419540915774523   12    9   11   11
 0.02009733074585822   12    9   12    9
 -0.01682844135980466   12   10    9    9
 0.00936253597202843   12   10   10    9
 0.02497371158573881   12   10   10   10
 -0.0001931578032859381   12   10   11    9
 -0.0002280282180303926   12   10   11   10
 -0.003853923822448476   12   10   11   11
 0.006949063846844876   12   10   12    9
 0.03227964898750504   12   10   12   10
 0.01041653173567504   12   11    9    9
 6.640029935722942e-05   12   11   10    9
 0.01012761322520221   12   11   10   10
 0.001007250879224874   12   11   11    9
 -9.207797657816115e-05   12   11   11   10
 -0.003992016714613236   12   11   11   11
 0.001298517478786499   12   11   12    9
 -0.001250700502430712   12   11   12   10
 0.006484814981808052   12   11   12   11
 13.54700329524817   12   12    9    9
 0.01206616187900208   12   12   10    9
 13.59095836810894   12   12   10   10
 0.003855186664473339   12   12   11    9
 -0.0005455371028550132   12   12   11   10
 13.41995385842729   12   12   11   11
 -0.01445349563319437   12   12   12    9
 -0.02281914551618321   12   12   12   10
 0.02665154885540858   12   12   12   11
 13.6888524715396   12   12   12   12
 12.3118697596146   13   13   13   13
 -0.01061123466776953   14   13   13   13
 0.101383021521891   14   13   14   13
 12.22421740548499   14   14   13   13
 -0.00210710402900574   14   14   14   13
 12.19664911733074   14   14   14   14
 -0.0002054268076653497   15   13   13   13
 -0.0009238058906216191   15   13   14   13
 0.003063344728718596   15   13   14   14
 0.1118516485554267   15   13   15   13
 -0.004332538440336045   15   14   13   13
 0.002724141294634564   15   14   14   13
 -0.001917634864233055   15   14   14   14
 -0.006720219784595106   15   14   15   13
 0.02388942813167482   15   14   15   14
 12.26886722861383   15   15   13   13
 -0.01123324981091204   15   15   14   13
 12.17501386044968   15   15   14   14
 -0.002066345635449414   15   15   15   13
 -0.005232721240653227   15   15   15   14
 12.27430884050023   15   15   15   15
 0.001262153667873706   16   13   13   13
 0.006414795626327595   16   13   14   13
 -0.01458830950894262   16   13   14   14
 0.0006015440113949868   16   13   15   13
 -0.00244664784442497   16   13   15   14
 0.004048092693758672   16   13   15   15
 0.1075179138587191   16   13   16   13
 0.02804376961190747   16   14   13   13
 -0.01505374492718345   16   14   14   13
 0.01405361694548189   16   14   14   14
 -0.002522332198462984   16   14   15   13
 -0.001868756695031039   16   14   15   14
 0.02657058261454648   16   14   15   15
 0.00563220748151668   16   14   16   13
 0.03434991227065098   16   14   16   14
 0.003358241447313494   16   15   13   13
 -0.002429718571974456   16   15   14   13
 0.0007674893181844779   16   15   14   14
 0.004027782602635765   16   15   15   13
 0.00305294297208492   16   15   15   14
 0.004039547309892706   16   15   15   15
 0.001410424672310392   16   15   16   13
 0.001150647231138115   16   15   16   14
 0.02642430819023733   16   15   16   15
 12.24913040551328   16   16   13   13
 0.002047601160049775   16   16   14   13
 12.17015716053428   16   16   14   14
 0.001548644629197134   16   16   15   13
 -0.002500449900850822   16   16   15   14
 12.19840472435705   16   16   15   15
 0.00189734293798767   16   16   16   13
 0.02346833677002419   16   16   16   14
 0.002802048278355408   16   16   16   15
 12.23475195856545   16   16   16   16
 9.286811823356873   17   17   17   17
 -0.007738563195941512   18   17   17   17
 0.02285437250661828   18   17   18   17
 9.119606662862525   18   18   17   17
 0.02086638439081472   18   18   18   17
 9.185276386392275   18   18   18   18
 -0.02311356035161416   19   17   17   17
 0.006438105892066704   19   17   18   17
 0.03934108303891812   19   17   18   18
 0.04734490315552534   19   17   19   17
 -0.0392857114314245   19   18   17   17
 0.01523396136748766   19   18   18   17
 0.01848155750139835   19   18   18   18
 0.02169935113231554   19   18   19   17
 0.03662351709451375   19   18   19   18
 9.224710378341991   19   19   17   17
 0.006406405404416528   19   19   18   17
 9.133626066131084   19   19   18   18
 -0.01009100269015396   19   19   19   17
 -0.03581815276774733   19   19   19   18
 9.252959535493838   19   19   19   19
 0.03019846031805597   20   17   17   17
 -0.008103305279775739   20   17   18   17
 -0.03229583755625262   20   17   18   18
 -0.02322578822984812   20   17   19   17
 -0.02309555932939836   20   17   19   18
 0.01205446511022576   20   17   19   19
 0.03899798104627054   20   17   20   17
 0.06216737271550298   20   18   17   17
 -0.01599283035182363   20   18   18   17
 -0.01588384259225649   20   18   18   18
 -0.02655001725830143   20   18   19   17
 -0.03112769830025172   20   18   19   18
 0.04920867298595263   20   18   19   19
 0.02927581047673651   20   18   20   17
 0.05581538824763516   20   18   20   18
 0.005551438743211559   20   19   17   17
 -0.007768282963784394   20   19   18   17
 -0.004831777024930378   20   19   18   18
 0.0001382279431529693   20   19   19   17
 -0.001457304524681435   20   19   19   18
 0.00700703364133914   20   19   19   19
 0.004255097321629171   20   19   20   17
 0.00619006082334071   20   19   20   18
 0.01800164967338068   20   19   20   19
 9.158691298638153   20   20   17   17
 0.02126983365724297   20   20   18   17
 9.148586197045811   20   20   18   18
 0.01668356148363647   20   20   19   17
 -0.0004962562397280955   20   20   19   18
 9.166369552534082   20   20   19   19
 -0.01662166988860311   20   20   20   17
 0.01236543049258098   20   20   20   18
 -0.001097208327268867   20   20   20   19
 9.184403336124273   20   20   20   20
 11.49242561440688   21   21   21   21
 -0.000794392927265158   22   21   21   21
 0.02298344299183925   22   21   22   21
 11.47207646919113   22   22   21   21
 0.01069613281066416   22   22   22   21
 11.54974858357475   22   22   22   22
 -0.03657086119287412   23   21   21   21
 -0.004162277299179406   23   21   22   21
 -0.0376033130783797   23   21   22   22
 0.01610175508668333   23   21   23   21
 -0.04835177649035693   23   22   21   21
 -0.008584087559921467   23   22   22   21
 -0.07816546077767088   23   22   22   22
 0.01756834477396979   23   22   23   21
 0.03902719294450206   23   22   23   22
 11.34832369078442   23   23   21   21
 0.008384208520361921   23   23   22   21
 11.35565298695816   23   23   22   22
 0.01425671373378375   23   23   23   21
 0.01905955194920433   23   23   23   22
 11.48681233052723   23   23   23   23
 0.03318350827597141   24   21   21   21
 0.01257949226603683   24   21   22   21
 0.06162887086602859   24   21   22   22
 -0.01619135020867186   24   21   23   21
 -0.03586109343802608   24   21   23   22
 -0.01988507339322254   24   21   23   23
 0.07347420687776166   24   21   24   21
 -0.01427112811734919   24   22   21   21
 0.003226489901216017   24   22   22   21
 -0.02939894317703528   24   22   22   22
 0.0004936542352815796   24   22   23   21
 0.01243973003830503   24   22   23   22
 -0.000199147205292315   24   22   23   23
 -0.01574611994617253   24   22   24   21
 0.01460088957533711   24   22   24   22
 -0.01239888130882055   24   23   21   21
 -0.00585846738310758   24   23   22   21
 -0.007440220913260218   24   23   22   22
 -0.004558583325254382   24   23   23   21
 0.003232790356983563   24   23   23   22
 -0.01586122514770383   24   23   23   23
 0.0006229230544272761   24   23   24   21
 0.007396145887152479   24   23   24   22
 0.03826577081416827   24   23   24   23
 11.42133546976154   24   24   21   21
 0.001821220610698738   24   24   22   21
 11.41806593710085   24   24   22   22
 -0.004432183434313508   24   24   23   21
 -0.009413898580129233   24   24   23   22
 11.43457054717383   24   24   23   23
 -0.001940187014194836   24   24   24   21
 -0.004204467273484072   24   24   24   22
 -0.005189267063685251   24   24   24   23
 11.51274939666592   24   24   24   24
 8.293849432177476   25   25   25   25
 -0.01079762174617975   26   25   25   25
 0.004854706926017462   26   25   26   25
 8.174672263455614   26   26   25   25
 0.03814246518509614   26   26   26   25
 8.673050806963273   26   26   26   26
 0.0008661734897401383   27   25   25   25
 -0.0004353529869358602   27   25   26   25
 -0.002166459253062086   27   25   26   26
 0.001157158331728689   27   25   27   25
 0.003420318344938559   27   26   25   25
 -0.001269109223731029   27   26   26   25
 0.009083144200878544   27   26   26   26
 0.002765112732740614   27   26   27   25
 0.04858067054261569   27   26   27   26
 8.178661666387622   27   27   25   25
 0.03309797231640284   27   27   26   25
 8.551284700106423   27   27   26   26
 0.0008512502958118676   27   27   27   25
 -0.02901392563825519   27   27   27   26
 8.721656285052207   27   27   27   27
 -80.224416465438    1    1  0  0
 -0.005968547185790866    2    1  0  0
 -79.76272756354746    2    2  0  0
 -0.01055213965622041    3    1  0  0
 0.01916182654299109    3    2  0  0
 -79.86916153888696    3    3  0  0
 -0.008370569672962134    4    1  0  0
 0.01385817713472923    4    2  0  0
 -0.007484477610847839    4    3  0  0
 -79.84448853779836    4    4  0  0
 -69.29289091340257    5    5  0  0
 0.08382798537260579    6    5  0  0
 -63.17506649754019    6    6  0  0
 -0.1221162745279919    7    5  0  0
 0.03702338964265265    7    6  0  0
 -62.83877452927523    7    7  0  0
 -0.02518756397391707    8    5  0  0
 0.005657606953875093    8    6  0  0
 -0.002920753768874941    8    7  0  0
 -62.82406319357932    8    8  0  0
 -86.36418058646527    9    9  0  0
 -0.05320752811488665   10    9  0  0
 -86.36166026728579   10   10  0  0
 -0.02913068527257107   11    9  0  0
 0.003083470290333586   11   10  0  0
 -83.54768315647705   11   11  0  0
 0.3096634604104821   12    9  0  0
 0.2268793454051752   12   10  0  0
 -0.2060515045476783   12   11  0  0
 -85.41235468151554   12   12  0  0
 -75.38715865909383   13   13  0  0
 -0.7488094594402315   14   13  0  0
 -74.98384329461938   14   14  0  0
 -0.09536241988770372   15   13  0  0
 -0.07291020713298044   15   14  0  0
 -74.34522918229464   15   15  0  0
 0.3283140446985123   16   13  0  0
 0.4012478581381076   16   14  0  0
 0.05613640285494717   16   15  0  0
 -74.64401158294399   16   16  0  0
 -59.81554230354999   17   17  0  0
 -0.07164751523159148   18   17  0  0
 -59.78287984987685   18   18  0  0
 -0.4193420293130951   19   17  0  0
 -0.04016723762075854   19   18  0  0
 -59.70479686445952   19   19  0  0
 0.2022786590680447   20   17  0  0
 -0.03661799762109953   20   18  0  0
 -0.07887607365240273   20   19  0  0
 -59.53413496108007   20   20  0  0
 -72.01699783155718   21   21  0  0
 0.03479994684383197   22   21  0  0
 -71.96632010541819   22   22  0  0
 0.1435429113240338   23   21  0  0
 0.1587258240281913   23   22  0  0
 -71.59826907686499   23   23  0  0
 0.07928087090698036   24   21  0  0
 0.04731251177733919   24   22  0  0
 0.03325405316070802   24   23  0  0
 -71.825555089112   24   24  0  0
 -51.90240102987978   25   25  0  0
 -0.3123158393930369   26   25  0  0
 -55.87210924492626   26   26  0  0
 -0.01379959761651087   27   25  0  0
 -0.03096087421659801   27   26  0  0
 -55.6837966561167   27   27  0  0
 -5078.616656081689  0  0  0  0
