 &FCI NORB=  32,NELEC=50,MS2=0,
  ORBSYM=1,1,1,1,1,1,1,1,1,1,1,1,1,1,1,1,1,1,1,1,1,1,1,1,1,1,1,1,1,1,1,1,
  ISYM=1,
 &END
 9.801552556206902    1    1    1    1
 0.002685500205612127    2    1    1    1
 0.0329565488677511    2    1    2    1
 9.735050465689154    2    2    1    1
 0.001926463771372902    2    2    2    1
 9.795028298531141    2    2    2    2
 0.001425831198109636    3    1    1    1
 -0.0004678479925905317    3    1    2    1
 0.004264696126633618    3    1    2    2
 0.03398091123599279    3    1    3    1
 0.0001690223430623645    3    2    1    1
 -0.001636166931448572    3    2    2    1
 -0.0005819146556977338    3    2    2    2
 -0.002211383140475993    3    2    3    1
 0.0290186041374514    3    2    3    2
 9.729634869261037    3    3    1    1
 0.006918089501288366    3    3    2    1
 9.735572525159453    3    3    2    2
 0.001302518058483478    3    3    3    1
 -0.001259793885609889    3    3    3    2
 9.79038420235457    3    3    3    3
 -0.000406052073084071    4    1    1    1
 -0.004213940596982544    4    1    2    1
 0.007926076157379003    4    1    2    2
 -0.001602106711792391    4    1    3    1
 -0.004083489424420527    4    1    3    2
 -0.008145079717316036    4    1    3    3
 0.02826619036338203    4    1    4    1
 0.007812572650714731    4    2    1    1
 -0.004410232885025787    4    2    2    1
 -0.00106397787701976    4    2    2    2
 0.00859424291242942    4    2    3    1
 0.001770725195310655    4    2    3    2
 -0.009290659981898952    4    2    3    3
 0.0006213127956744161    4    2    4    1
 0.02964555951741094    4    2    4    2
 0.002856004579383971    4    3    1    1
 -0.004073628861982142    4    3    2    1
 -0.0006157458929494605    4    3    2    2
 0.005191083275230168    4    3    3    1
 0.004702023069242136    4    3    3    2
 0.0007803686852263106    4    3    3    3
 -0.003151937877075377    4    3    4    1
 0.005548771159064915    4    3    4    2
 0.02490867685226198    4    3    4    3
 9.729531169236337    4    4    1    1
 -0.001734775359277859    4    4    2    1
 9.728717099860461    4    4    2    2
 0.008386158120793505    4    4    3    1
 -0.01013658687605319    4    4    3    2
 9.736263672968091    4    4    3    3
 -0.0002841940581475473    4    4    4    1
 -0.001037494518618056    4    4    4    2
 0.0008943371863556447    4    4    4    3
 9.777734737347467    4    4    4    4
 13.39787845919976    5    5    5    5
 -0.03096453800906468    6    5    5    5
 0.005296157297388296    6    5    6    5
 12.97847194939896    6    6    5    5
 0.0198923961054579    6    6    6    5
 13.21127154879223    6    6    6    6
 -0.0009267092964619907    7    5    5    5
 0.0001007431566991877    7    5    6    5
 0.0003081748716173543    7    5    6    6
 0.00041697346232358    7    5    7    5
 8.738521080653064e-05    7    6    5    5
 5.983351165021679e-05    7    6    6    5
 0.0002412826146231025    7    6    6    6
 0.002276534293731212    7    6    7    5
 0.02681307116352857    7    6    7    6
 12.95845651990381    7    7    5    5
 0.01683715188569576    7    7    6    5
 13.1597673687398    7    7    6    6
 0.0006056844591905003    7    7    7    5
 0.0002582542681989685    7    7    7    6
 13.21703707232469    7    7    7    7
 0.000694037072710467    8    5    5    5
 -0.0001359664600437733    8    5    6    5
 -0.0007062393880110765    8    5    6    6
 -1.243045434729561e-05    8    5    7    5
 -2.432832527302704e-05    8    5    7    6
 -0.0005943405796401531    8    5    7    7
 0.0003320087262719054    8    5    8    5
 0.0001372474161701652    8    6    5    5
 -0.0002534613706715151    8    6    6    5
 5.227288861873701e-05    8    6    6    6
 -2.335485651125883e-05    8    6    7    5
 -2.577047788441755e-05    8    6    7    6
 -1.219302979704793e-07    8    6    7    7
 0.002184615946855972    8    6    8    5
 0.02670793023877609    8    6    8    6
 0.0002262277121790502    8    7    5    5
 -6.330015016330977e-05    8    7    6    5
 -9.166034854765798e-05    8    7    6    6
 -7.911599167840037e-05    8    7    7    5
 -2.255391753788438e-05    8    7    7    6
 -0.000127891900966304    8    7    7    7
 0.0001608807157124571    8    7    8    5
 3.089689333812045e-05    8    7    8    6
 0.02714587536498397    8    7    8    7
 12.95972494446162    8    8    5    5
 0.01641123943520863    8    8    6    5
 13.15882731524876    8    8    6    6
 0.0005279844454334735    8    8    7    5
 0.0001996980492189464    8    8    7    6
 13.16131012182336    8    8    7    7
 -0.0006222714211135132    8    8    8    5
 4.031182667546264e-05    8    8    8    6
 -0.0001329553956858463    8    8    8    7
 13.21443527406212    8    8    8    8
 14.93623828219106    9    9    9    9
 0.1217222041979182   10    9    9    9
 0.08320050881769434   10    9   10    9
 14.57606565707032   10   10    9    9
 -0.1226498024440995   10   10   10    9
 14.94534430491705   10   10   10   10
 0.0005366308207280401   11    9    9    9
 0.0001019626294446277   11    9   10    9
 0.0001963914474817605   11    9   10   10
 6.881246566454661e-06   11    9   11    9
 7.177161105646605e-05   11   10    9    9
 -3.609298466874706e-05   11   10   10    9
 0.0001952066254890325   11   10   10   10
 -2.326264037292888e-06   11   10   11    9
 3.375552389787178e-06   11   10   11   10
 14.40566259123229   11   11    9    9
 0.0009868097150878136   11   11   10    9
 14.40023981904401   11   11   10   10
 9.791841344925726e-05   11   11   11    9
 -0.0004934967900999674   11   11   11   10
 14.97152103936571   11   11   11   11
 0.001737481710144062   12    9    9    9
 0.0001894295733119996   12    9   10    9
 0.001119599871296839   12    9   10   10
 -7.653246061671711e-07   12    9   11    9
 1.776459740433942e-06   12    9   11   10
 -0.00103096582517973   12    9   11   11
 2.025227550077019e-05   12    9   12    9
 -0.000241885472841116   12   10    9    9
 0.0003470004288432529   12   10   10    9
 -0.001214290078823703   12   10   10   10
 3.007938000251434e-07   12   10   11    9
 -3.755344599589321e-06   12   10   11   10
 0.0005895771862406409   12   10   11   11
 -7.625547749766824e-06   12   10   12    9
 1.650304571766635e-05   12   10   12   10
 -0.01294878142214253   12   11    9    9
 -0.0001260932036689921   12   11   10    9
 -0.01215307943934799   12   11   10   10
 -0.0002196025998296971   12   11   11    9
 0.0001541236780959237   12   11   11   10
 -0.0758794791534072   12   11   11   11
 -2.771747397837821e-05   12   11   12    9
 -3.865726457926046e-06   12   11   12   10
 0.02365956951999637   12   11   12   11
 14.36051879526155   12   12    9    9
 0.0005519690980480413   12   12   10    9
 14.35768498459283   12   12   10   10
 -0.0001612328617684664   12   12   11    9
 -7.022928301723551e-05   12   12   11   10
 14.53569641315971   12   12   11   11
 -0.001035562802311416   12   12   12    9
 0.0005562017181554109   12   12   12   10
 0.00974805750202957   12   12   12   11
 14.56413347728569   12   12   12   12
 8.677422976446335   13   13   13   13
 -0.0418814719742136   14   13   13   13
 0.04671278766010616   14   13   14   13
 8.424147881928709   14   14   13   13
 0.03928017360003228   14   14   14   13
 8.52760711932425   14   14   14   14
 -0.0002449771809425207   15   13   13   13
 -0.0006694183283498551   15   13   14   13
 -0.002651414759487881   15   13   14   14
 0.1118028383336253   15   13   15   13
 -0.0009455390976177896   15   14   13   13
 -0.0004963160310724983   15   14   14   13
 -0.0006056638791643117   15   14   14   14
 -0.02205480093165905   15   14   15   13
 0.01097632354719445   15   14   15   14
 8.637922312137245   15   15   13   13
 -0.04637290890987175   15   15   14   13
 8.396609660731928   15   15   14   14
 0.0007082795150320628   15   15   15   13
 -0.0008568047351764337   15   15   15   14
 8.648441408867301   15   15   15   15
 -0.0004144077082173314   16   13   13   13
 0.0006990132784761147   16   13   14   13
 -0.0001368563209795522   16   13   14   14
 -1.692752536986978e-05   16   13   15   13
 -0.0002496509306295928   16   13   15   14
 -0.0004856126567833205   16   13   15   15
 0.1116541703699768   16   13   16   13
 0.00156876983971556   16   14   13   13
 -0.0004985251252215496   16   14   14   13
 -0.0002635424976763738   16   14   14   14
 -0.0002138925892295898   16   14   15   13
 2.849018953647433e-05   16   14   15   14
 0.001386954187309803   16   14   15   15
 -0.0205077993582596   16   14   16   13
 0.0108577967233818   16   14   16   14
 0.0003431512157596706   16   15   13   13
 -0.0003171331827602079   16   15   14   13
 -2.021820059581871e-05   16   15   14   14
 -0.0002157208749622448   16   15   15   13
 0.0001963769487527776   16   15   15   14
 0.0004398585399532098   16   15   15   15
 -5.054105001289701e-05   16   15   16   13
 -4.228265650478458e-05   16   15   16   14
 0.02902124460578913   16   15   16   15
 8.636734490233035   16   16   13   13
 -0.04479932337206323   16   16   14   13
 8.396611791635872   16   16   14   14
 -0.0002413572877348192   16   16   15   13
 -0.0006702398601184331   16   16   15   14
 8.588767327949414   16   16   15   15
 0.0001963611700009072   16   16   16   13
 0.001581623512497913   16   16   16   14
 0.0004385124240549629   16   16   16   15
 8.645273199851397   16   16   16   16
 16.28926661729837   17   17   17   17
 -0.00635953039029041   18   17   17   17
 0.04615973370084299   18   17   18   17
 16.23320318665757   18   18   17   17
 -0.02103838734817767   18   18   18   17
 16.36641655390791   18   18   18   18
 -0.00571789230831761   19   17   17   17
 -0.0006676120881406432   19   17   18   17
 -0.008690851154658855   19   17   18   18
 0.001093714349974563   19   17   19   17
 -0.005280703034193463   19   18   17   17
 -0.004326223727925304   19   18   18   17
 -0.01120326602908   19   18   18   18
 0.0009475596006309872   19   18   19   17
 0.002087230387649274   19   18   19   18
 16.05971287944179   19   19   17   17
 -0.002111992875162404   19   19   18   17
 16.07054542159464   19   19   18   18
 0.01324842543049387   19   19   19   17
 0.01536619512532652   19   19   19   18
 16.45815688628772   19   19   19   19
 0.008241329604503921   20   17   17   17
 -0.01507566403511691   20   17   18   17
 0.02212528460748011   20   17   18   18
 -0.0003038695604163593   20   17   19   17
 0.0006500236839055967   20   17   19   18
 0.005468968568211274   20   17   19   19
 0.02296390637720057   20   17   20   17
 -0.004659911176233961   20   18   17   17
 -0.04574336525305012   20   18   18   17
 -0.005758786955547365   20   18   18   18
 0.001628494793830856   20   18   19   17
 0.006995183349932078   20   18   19   18
 -0.00104859755140281   20   18   19   19
 0.00872111452424962   20   18   20   17
 0.08460686178762973   20   18   20   18
 0.007242102869596527   20   19   17   17
 0.001246429746078442   20   19   18   17
 0.01286743315126654   20   19   18   18
 -0.0009685452845525628   20   19   19   17
 -0.001500472163324842   20   19   19   18
 -0.01864550231961456   20   19   19   19
 0.0002562491545960466   20   19   20   17
 -0.003128311161690329   20   19   20   18
 0.002043822834471085   20   19   20   19
 16.22124134595713   20   20   17   17
 -0.04480598026327149   20   20   18   17
 16.33168977845164   20   20   18   18
 -0.006809609565957879   20   20   19   17
 -0.006348824136009449   20   20   19   18
 16.06935402433591   20   20   19   19
 0.04284344593551073   20   20   20   17
 0.04546766593855055   20   20   20   18
 0.01105085599504039   20   20   20   19
 16.38642915905541   20   20   20   20
 14.57236235046403   21   21   21   21
 0.0005310540183116157   22   21   21   21
 0.01052881645540996   22   21   22   21
 14.46741597973989   22   22   21   21
 -0.000662287729663519   22   22   22   21
 14.68433086991761   22   22   22   22
 0.08011418483328533   23   21   21   21
 0.00321593236901877   23   21   22   21
 -0.1046711203421789   23   21   22   22
 0.1762730312341065   23   21   23   21
 0.002686329733643849   23   22   21   21
 -0.007773279764337035   23   22   22   21
 -0.007158454617350252   23   22   22   22
 0.005512684723577452   23   22   23   21
 0.02045086190686094   23   22   23   22
 14.52348649949425   23   23   21   21
 0.0004783045932264633   23   23   22   21
 14.56873886249591   23   23   22   22
 -0.03700814263764717   23   23   23   21
 -0.003234456667414922   23   23   23   22
 14.57895792791261   23   23   23   23
 -0.008242940469682328   24   21   21   21
 -0.0003855120636720814   24   21   22   21
 0.01305093503947341   24   21   22   22
 -0.02016513625841259   24   21   23   21
 -0.0006110865627970704   24   21   23   22
 0.005292678627755229   24   21   23   23
 0.002974256853271959   24   21   24   21
 -0.0006436310198774544   24   22   21   21
 0.0009285653909266425   24   22   22   21
 -0.0002694288905399531   24   22   22   22
 -0.0002476314281607247   24   22   23   21
 -0.002324740389295177   24   22   23   22
 -0.0003243000932947506   24   22   23   23
 1.933044803091011e-05   24   22   24   21
 0.0002762331976156753   24   22   24   22
 -0.03041960473387998   24   23   21   21
 -0.0001264776759694856   24   23   22   21
 -0.03794614216098669   24   23   22   22
 0.004619549177463779   24   23   23   21
 0.0003768827931513545   24   23   23   22
 -0.03794272125309556   24   23   23   23
 -0.0005153828521963129   24   23   24   21
 9.516609904922302e-05   24   23   24   22
 0.007137131969217012   24   23   24   23
 14.24699619267957   24   24   21   21
 -0.0006636154623585067   24   24   22   21
 14.23252186405622   24   24   22   22
 -0.0001308410290026298   24   24   23   21
 0.0002526771097642387   24   24   23   22
 14.24030753213328   24   24   23   23
 0.001647562654776116   24   24   24   21
 0.000489037883224663   24   24   24   22
 0.02558419424236878   24   24   24   23
 14.47300801005498   24   24   24   24
 10.13143465295041   25   25   25   25
 0.01092296445877019   26   25   25   25
 0.0008793192352222702   26   25   26   25
 9.775320561912427   26   26   25   25
 -0.006688542555292179   26   26   26   25
 10.13646764066126   26   26   26   26
 0.000178287667080522   27   25   25   25
 3.080315816400365e-05   27   25   26   25
 8.598817294912248e-05   27   25   26   26
 3.991955701464352e-05   27   25   27   25
 0.005921924922423149   27   26   25   25
 0.0004412293686952805   27   26   26   25
 -0.007982199867966507   27   26   26   26
 -0.0001858052869646888   27   26   27   25
 0.0390618640792031   27   26   27   26
 9.754416457506457   27   27   25   25
 -0.004544839903226549   27   27   26   25
 10.03878068776136   27   27   26   26
 -2.834706037521673e-05   27   27   27   25
 0.001244494544467237   27   27   27   26
 10.11659330722004   27   27   27   27
 -0.003579129860837399   28   25   25   25
 -0.0001594095522210156   28   25   26   25
 -0.0006895130406584199   28   25   26   26
 -7.267984837157087e-05   28   25   27   25
 8.905329781196853e-06   28   25   27   26
 -0.0004296983157635389   28   25   27   27
 0.01643450452893327   28   25   28   25
 -0.001556610930858742   28   26   25   25
 -0.0001002499121749749   28   26   26   25
 0.002735440682383459   28   26   26   26
 -4.491954607036886e-06   28   26   27   25
 0.0002342073849440376   28   26   27   26
 0.002464383237138788   28   26   27   27
 0.0005295553819378964   28   26   28   25
 0.0004316342502831339   28   26   28   26
 -0.001388715844246892   28   27   25   25
 -6.742921609771369e-05   28   27   26   25
 0.001386025131038078   28   27   26   26
 -1.43272899488675e-06   28   27   27   25
 0.0002477794940564611   28   27   27   26
 0.001814816904098923   28   27   27   27
 -4.948521621890031e-06   28   27   28   25
 3.357870049043936e-05   28   27   28   26
 2.283213982154894e-05   28   27   28   27
 10.0433821187283   28   28   25   25
 0.00851948465612714   28   28   26   25
 9.76299348113305   28   28   26   26
 4.250951559701954e-05   28   28   27   25
 0.004691943240127427   28   28   27   26
 9.742567222494083   28   28   27   27
 -0.003638359392170246   28   28   28   25
 -0.002095677910328954   28   28   28   26
 -0.001596932487043419   28   28   28   27
 10.06976900632535   28   28   28   28
 11.69770903089688   29   29   29   29
 -0.0006045514127814758   30   29   29   29
 0.02263869919225152   30   29   30   29
 11.61958674289853   30   30   29   29
 0.01334110895393657   30   30   30   29
 11.64356556364785   30   30   30   30
 0.0009335312958282775   31   29   29   29
 0.0008059834207632269   31   29   30   29
 0.0003125792837405799   31   29   30   30
 0.0001066992812433277   31   29   31   29
 0.004309167608041022   31   30   29   29
 8.459336319128824e-05   31   30   30   29
 0.005445727718381066   31   30   30   30
 -3.630518170389535e-06   31   30   31   29
 0.0007591703586259183   31   30   31   30
 11.49928787993929   31   31   29   29
 0.003339235838027393   31   31   30   29
 11.47711395785251   31   31   30   30
 0.0004770727566461019   31   31   31   29
 -0.01710908600339207   31   31   31   30
 12.01174270455095   31   31   31   31
 0.0001646343612222317   32   29   29   29
 0.0001304678673210092   32   29   30   29
 -0.0001285645080470392   32   29   30   30
 3.330660096880075e-05   32   29   31   29
 -9.655573189646068e-06   32   29   31   30
 0.0001538651931315299   32   29   31   31
 2.54407333281082e-05   32   29   32   29
 0.0008161446406147558   32   30   29   29
 -8.878543873935157e-05   32   30   30   29
 0.001037294767919833   32   30   30   30
 2.253282440060943e-06   32   30   31   29
 0.0001309095338491722   32   30   31   30
 -0.002239057673525247   32   30   31   31
 -8.91537446151829e-06   32   30   32   29
 0.000108596714441888   32   30   32   30
 -0.001261909387562112   32   31   29   29
 0.0004815077460454116   32   31   30   29
 -0.0005144917073582654   32   31   30   30
 -0.0002022830965690003   32   31   31   29
 -2.295270254244579e-06   32   31   31   30
 -0.01452539468176717   32   31   31   31
 0.0001280988347856123   32   31   32   29
 -0.001957350942186257   32   31   32   30
 0.06023158986721007   32   31   32   31
 11.4987182857686   32   32   29   29
 0.002373181122181878   32   32   30   29
 11.47634561161611   32   32   30   30
 0.0003443394978497882   32   32   31   29
 -0.01388164734116444   32   32   31   30
 11.89557876242042   32   32   31   31
 0.0006533816184753072   32   32   32   29
 -0.004251722791423976   32   32   32   30
 0.03333333709686868   32   32   32   31
 12.03873380427074   32   32   32   32
 -87.74711963175363    1    1  0  0
 -0.04271049024954667    2    1  0  0
 -87.63676749498632    2    2  0  0
 -0.02121250601681328    3    1  0  0
 0.03668327350542951    3    2  0  0
 -87.54650107090077    3    3  0  0
 -0.02940593097743515    4    1  0  0
 0.03029645972780044    4    2  0  0
 -0.05822092155295961    4    3  0  0
 -87.28085611535147    4    4  0  0
 -114.4698798330838    5    5  0  0
 0.3334052948634613    6    5  0  0
 -107.1728469723398    6    6  0  0
 0.003135868036260694    7    5  0  0
 0.03559759722212791    7    6  0  0
 -106.807530859343    7    7  0  0
 -0.005379863061659922    8    5  0  0
 -0.009689035828164374    8    6  0  0
 0.001864269752700139    8    7  0  0
 -106.7838475883054    8    8  0  0
 -121.2096207176014    9    9  0  0
 0.04038017096788762   10    9  0  0
 -121.0660102405604   10   10  0  0
 -0.003884146562780703   11    9  0  0
 0.002343158537762292   11   10  0  0
 -121.7277566401588   11   11  0  0
 -0.0007717664352548116   12    9  0  0
 0.000378379087166209   12   10  0  0
 0.4224710695643605   12   11  0  0
 -118.7490687892637   12   12  0  0
 -72.46509372286107   13   13  0  0
 -0.6525237682100484   14   13  0  0
 -73.63952017827803   14   14  0  0
 0.04020632622438819   15   13  0  0
 0.001858696969422929   15   14  0  0
 -71.35356896605323   15   15  0  0
 0.2928649991251955   16   13  0  0
 -0.002606337459398898   16   14  0  0
 0.0005471689959594985   16   15  0  0
 -71.39840928174763   16   16  0  0
 -131.0070882993065   17   17  0  0
 0.07405366277136943   18   17  0  0
 -131.6258851347252   18   18  0  0
 -0.002545643189808291   19   17  0  0
 0.003620543368868264   19   18  0  0
 -131.649371639724   19   19  0  0
 -0.312992328933297   20   17  0  0
 0.2914488505878105   20   18  0  0
 0.01382759744092442   20   19  0  0
 -131.2563824049762   20   20  0  0
 -117.9216146810647   21   21  0  0
 0.02066038878617391   22   21  0  0
 -117.69823539543   22   22  0  0
 -0.02657555090210927   23   21  0  0
 -0.002417881250137588   23   22  0  0
 -117.7005735336612   23   23  0  0
 -0.02349091135529034   24   21  0  0
 0.001660064650073593   24   22  0  0
 0.08430117145335328   24   23  0  0
 -116.9163007207747   24   24  0  0
 -26.37310514177111   25   25  0  0
 0.001783579049733552   26   25  0  0
 -26.48555059982912   26   26  0  0
 0.0004012856411041599   27   25  0  0
 0.030561314402276   27   26  0  0
 -25.9068274351314   27   27  0  0
 0.02957847635534883   28   25  0  0
 -0.01371577566564005   28   26  0  0
 -0.002656189841852803   28   27  0  0
 -25.39889635136718   28   28  0  0
 -4.399681542175097   29   29  0  0
 -0.1666525504456194   30   29  0  0
 -3.493566973815352   30   30  0  0
 -0.02310639801972251   31   29  0  0
 0.09738478999350184   31   30  0  0
 -6.620443630377431   31   31  0  0
 -0.007599759688478767   32   29  0  0
 0.01725770494744222   32   30  0  0
 0.0462806231221496   32   31  0  0
 -6.368977864837873   32   32  0  0
 -5012.742583525025  0  0  0  0
