 &FCI NORB=  20,NELEC=32,MS2=0,
  ORBSYM=1,1,1,1,1,1,1,1,1,1,1,1,1,1,1,1,1,1,1,1,
  ISYM=1,
 &END
 0.368575246657613    1    1    1    1
 -0.004687133760517707    2    1    1    1
 0.02215604209125347    2    1    2    1
 0.244379022334847    2    2    1    1
 0.006957764501710846    2    2    2    1
 0.2286014088770207    2    2    2    2
 -0.03721930514349756    3    1    1    1
 -0.001816665587716729    3    1    2    1
 -0.003731346853908963    3    1    2    2
 0.01859998655516231    3    1    3    1
 -0.01403614489379918    3    2    1    1
 0.02871368648292925    3    2    2    1
 0.01579652698069943    3    2    2    2
 0.0002057804938627939    3    2    3    1
 0.08130213528946059    3    2    3    2
 0.2414262222555189    3    3    1    1
 -0.003506389288092426    3    3    2    1
 0.216536882106755    3    3    2    2
 -0.005213422764944588    3    3    3    1
 -0.0131767014886509    3    3    3    2
 0.2216201559936167    3    3    3    3
 -0.008563409052739069    4    1    1    1
 0.01888059338754927    4    1    2    1
 0.008367662311665594    4    1    2    2
 0.002067601096197488    4    1    3    1
 0.02685281233253953    4    1    3    2
 -0.003500272658081814    4    1    3    3
 0.03327808972463589    4    1    4    1
 0.03428377442091969    4    2    1    1
 0.004179495244106904    4    2    2    1
 0.01665295652250638    4    2    2    2
 -0.003747898972742783    4    2    3    1
 0.005493633102895769    4    2    3    2
 0.00551100857010965    4    2    3    3
 0.007845586408833698    4    2    4    1
 0.02059665214156543    4    2    4    2
 0.01079187167783814    4    3    1    1
 -0.007534965966311875    4    3    2    1
 -0.001112652263806898    4    3    2    2
 -0.001295745035684095    4    3    3    1
 -0.02626013149836219    4    3    3    2
 0.006738301210694421    4    3    3    3
 -0.008363043538522902    4    3    4    1
 0.003433046092075947    4    3    4    2
 0.01900264837548052    4    3    4    3
 0.31523431593109    4    4    1    1
 0.01942038351104609    4    4    2    1
 0.2537640481052785    4    4    2    2
 -0.01764654430913325    4    4    3    1
 0.03710996577940037    4    4    3    2
 0.233180779125562    4    4    3    3
 0.02999255057539661    4    4    4    1
 0.03600280661901937    4    4    4    2
 -0.01139224600726336    4    4    4    3
 0.3742540266254126    4    4    4    4
 -0.002797370783000673    5    1    1    1
 0.001884857200664472    5    1    2    1
 -0.005851491141701651    5    1    2    2
 -0.005878468630283785    5    1    3    1
 0.0001627245222244384    5    1    3    2
 -0.002738320703585124    5    1    3    3
 0.001258019660231779    5    1    4    1
 -0.005397142003517818    5    1    4    2
 -0.0004685833043738782    5    1    4    3
 -0.01529774189638512    5    1    4    4
 0.01276882672649604    5    1    5    1
 0.00694919048200438    5    2    1    1
 -0.009888944298381872    5    2    2    1
 -0.004451123088072768    5    2    2    2
 -0.001333909958960786    5    2    3    1
 -0.01958812054065613    5    2    3    2
 0.003105343894526933    5    2    3    3
 -0.01637501521059652    5    2    4    1
 -0.003960469876626115    5    2    4    2
 0.0008052747995836136    5    2    4    3
 -0.01377142984301139    5    2    4    4
 -0.001210916137585187    5    2    5    1
 0.01494935361931895    5    2    5    2
 -0.008407567426491175    5    3    1    1
 -0.00148531316552923    5    3    2    1
 -0.005486125060497145    5    3    2    2
 0.002558377537775704    5    3    3    1
 -0.001482648214943384    5    3    3    2
 -0.00114649994613027    5    3    3    3
 -0.001086466962232926    5    3    4    1
 -0.006588716026763743    5    3    4    2
 0.001702384669277522    5    3    4    3
 0.002938756266745484    5    3    4    4
 -0.001877906091075697    5    3    5    1
 -0.004064727656057435    5    3    5    2
 0.01356803347504097    5    3    5    3
 0.01838617509500462    5    4    1    1
 -0.03277483849733166    5    4    2    1
 -0.01365031710848566    5    4    2    2
 -0.001508782980391824    5    4    3    1
 -0.06470855715190826    5    4    3    2
 0.01205931079728017    5    4    3    3
 -0.04979095188589264    5    4    4    1
 -0.009898992951816125    5    4    4    2
 0.03035272886385409    5    4    4    3
 -0.0535780806582468    5    4    4    4
 -0.00479173214872493    5    4    5    1
 0.02267615303060217    5    4    5    2
 0.007805753957259868    5    4    5    3
 0.1105573003715315    5    4    5    4
 0.3436796975398508    5    5    1    1
 -0.02219906165765711    5    5    2    1
 0.2402162720738697    5    5    2    2
 -0.01947464687464046    5    5    3    1
 -0.05146858269510261    5    5    3    2
 0.2559799758819464    5    5    3    3
 -0.03280269212869991    5    5    4    1
 0.02245093918703436    5    5    4    2
 0.02808626356558502    5    5    4    3
 0.3129229840204903    5    5    4    4
 -0.02057661987382267    5    5    5    1
 0.0197462271498915    5    5    5    2
 0.00708018376173876    5    5    5    3
 0.08558669587720828    5    5    5    4
 0.4513001325221696    5    5    5    5
 -0.005497869136089061    6    1    1    1
 0.0112667635108996    6    1    2    1
 0.004344785264633954    6    1    2    2
 0.001452016567082775    6    1    3    1
 0.0152393540549418    6    1    3    2
 -0.002157207009079655    6    1    3    3
 0.01521182811284854    6    1    4    1
 0.003593572453759076    6    1    4    2
 -0.004064155259484362    6    1    4    3
 0.01276326944685926    6    1    4    4
 -0.000217747692682003    6    1    5    1
 -0.007637488560099399    6    1    5    2
 -0.0003725867938184138    6    1    5    3
 -0.02224367363711856    6    1    5    4
 -0.01773426037954846    6    1    5    5
 0.01400508065082708    6    1    6    1
 0.008211411148703952    6    2    1    1
 0.0007022206551805326    6    2    2    1
 0.00200190744770113    6    2    2    2
 -0.0004991309744248042    6    2    3    1
 -0.0001902271573203684    6    2    3    2
 -0.001006690309189555    6    2    3    3
 0.001086824733200249    6    2    4    1
 0.005374401542031905    6    2    4    2
 0.001505572683669022    6    2    4    3
 0.008611451094397147    6    2    4    4
 -0.0007356626252770597    6    2    5    1
 -0.0005998305932236706    6    2    5    2
 0.002954378601609331    6    2    5    3
 -0.001247816180813796    6    2    5    4
 0.001773457904035101    6    2    5    5
 0.001131043641006526    6    2    6    1
 0.01055944018976908    6    2    6    2
 0.003956908349592141    6    3    1    1
 -0.001841932348570504    6    3    2    1
 -0.0009077293898188333    6    3    2    2
 -0.0006971222910268025    6    3    3    1
 -0.009015361267602119    6    3    3    2
 0.001835972863820851    6    3    3    3
 -0.00276469486543523    6    3    4    1
 0.0008444834361511501    6    3    4    2
 0.002709009793748752    6    3    4    3
 0.0004557605365236068    6    3    4    4
 8.809760626546232e-05    6    3    5    1
 0.005766744111346398    6    3    5    2
 -0.001476499956449313    6    3    5    3
 0.00274855581033169    6    3    5    4
 0.009395038323068108    6    3    5    5
 -0.002764120002718715    6    3    6    1
 0.005709833122134242    6    3    6    2
 0.01117605530507942    6    3    6    3
 0.00765705107450118    6    4    1    1
 -0.001372320689357715    6    4    2    1
 0.002623753203054418    6    4    2    2
 -0.001531888716784669    6    4    3    1
 -0.003019842598013884    6    4    3    2
 0.000489919024392744    6    4    3    3
 -0.003197624247397577    6    4    4    1
 0.004877717845651304    6    4    4    2
 0.005559745423243523    6    4    4    3
 -0.01349204046372016    6    4    4    4
 0.002217353139997012    6    4    5    1
 0.0003685927204491981    6    4    5    2
 -0.006179633001230482    6    4    5    3
 0.01127635384486985    6    4    5    4
 -0.00802661557584303    6    4    5    5
 0.001054156327506577    6    4    6    1
 0.0005875865727474965    6    4    6    2
 -0.002629478312767955    6    4    6    3
 0.01832402179656326    6    4    6    4
 -0.01361147639106929    6    5    1    1
 0.02009328986910214    6    5    2    1
 0.008573900137647987    6    5    2    2
 0.001846073339416198    6    5    3    1
 0.04656644645198725    6    5    3    2
 -0.008943264532402805    6    5    3    3
 0.03057766166067169    6    5    4    1
 0.004393572510343655    6    5    4    2
 -0.02200826080344452    6    5    4    3
 0.03678295905428523    6    5    4    4
 0.0002162658111798656    6    5    5    1
 -0.01795701272211296    6    5    5    2
 6.66584987727741e-05    6    5    5    3
 -0.0693209576695679    6    5    5    4
 -0.05842249242692973    6    5    5    5
 0.01649309529361523    6    5    6    1
 -0.002638239200493022    6    5    6    2
 -0.01116489397679204    6    5    6    3
 -0.01028317479218124    6    5    6    4
 0.05961004133728702    6    5    6    5
 0.3145862930503655    6    6    1    1
 0.03126481058900359    6    6    2    1
 0.2692687440215684    6    6    2    2
 -0.01580681794527875    6    6    3    1
 0.06674791810287563    6    6    3    2
 0.2382404327188744    6    6    3    3
 0.048045716420675    6    6    4    1
 0.03749733792541169    6    6    4    2
 -0.02146434977468053    6    6    4    3
 0.3833243107358348    6    6    4    4
 -0.01070396346293065    6    6    5    1
 -0.02522392998620308    6    6    5    2
 -0.0103094417412488    6    6    5    3
 -0.08616101182822657    6    6    5    4
 0.2927499468263734    6    6    5    5
 0.02808376347554493    6    6    6    1
 -0.01042657068461574    6    6    6    2
 -0.01940088816296419    6    6    6    3
 -0.005944643039830316    6    6    6    4
 0.07444868053140158    6    6    6    5
 0.5018208657558936    6    6    6    6
 -0.0008143765878663599    7    1    1    1
 0.009684484410545898    7    1    2    1
 -0.006202487958191939    7    1    2    2
 -0.01337614249099358    7    1    3    1
 0.01004490371198534    7    1    3    2
 -0.005788962163422983    7    1    3    3
 0.01027149834266442    7    1    4    1
 -0.005526141394675617    7    1    4    2
 -0.00335174550539638    7    1    4    3
 -0.01003860925782231    7    1    4    4
 0.01452694520722389    7    1    5    1
 -0.006253795952383752    7    1    5    2
 -0.00124274405463795    7    1    5    3
 -0.02002198646653323    7    1    5    4
 -0.04092732331996241    7    1    5    5
 0.005936744013046721    7    1    6    1
 -0.001315912113271647    7    1    6    2
 -0.001526513500482764    7    1    6    3
 -0.0003607574388436628    7    1    6    4
 0.01244119294820934    7    1    6    5
 -0.009719569901717776    7    1    6    6
 0.04406472073229369    7    1    7    1
 0.00913406258083568    7    2    1    1
 -0.009458792149413659    7    2    2    1
 -0.003331864460366454    7    2    2    2
 -0.0009484404747892622    7    2    3    1
 -0.01381097128333782    7    2    3    2
 0.001117696661875537    7    2    3    3
 -0.01492327985388837    7    2    4    1
 -0.002552767366715679    7    2    4    2
 0.0006459332610453412    7    2    4    3
 -0.009817645211856039    7    2    4    4
 -0.001658503591063408    7    2    5    1
 0.00747193840712996    7    2    5    2
 0.002063229789371066    7    2    5    3
 0.0227830099666934    7    2    5    4
 0.01418034406697888    7    2    5    5
 -0.007690839745871467    7    2    6    1
 -0.0009842973617595959    7    2    6    2
 -0.003928282161746509    7    2    6    3
 0.0005658515407283252    7    2    6    4
 -0.007455236369628073    7    2    6    5
 -0.01527454650936639    7    2    6    6
 -0.006864831521348364    7    2    7    1
 0.01549355865557005    7    2    7    2
 -0.008516205843673982    7    3    1    1
 -0.003009388517007296    7    3    2    1
 -0.002658515091374197    7    3    2    2
 0.003173084954667752    7    3    3    1
 -0.007928722110127739    7    3    3    2
 0.003474653701484213    7    3    3    3
 -0.003648806283915037    7    3    4    1
 -0.006152750761247643    7    3    4    2
 0.002333435417150127    7    3    4    3
 -0.007216342180424153    7    3    4    4
 -0.001331977327325537    7    3    5    1
 0.004235808683175761    7    3    5    2
 -0.001067980442316122    7    3    5    3
 0.008782789443880131    7    3    5    4
 0.01293845497460407    7    3    5    5
 -0.002211615895708003    7    3    6    1
 -0.006565904262733815    7    3    6    2
 0.001819144608485928    7    3    6    3
 -0.0008053403836656111    7    3    6    4
 -0.008771015295637757    7    3    6    5
 0.0002840540830963455    7    3    6    6
 -0.007489773429102666    7    3    7    1
 -0.002450832416857964    7    3    7    2
 0.01229696117283736    7    3    7    3
 0.01316376142213677    7    4    1    1
 -0.02092363366298549    7    4    2    1
 -0.007395232998889033    7    4    2    2
 -0.0002291210434651326    7    4    3    1
 -0.0381605149917298    7    4    3    2
 0.006993090980391564    7    4    3    3
 -0.03098122023793785    7    4    4    1
 -0.006062713245902289    7    4    4    2
 0.01155054873407308    7    4    4    3
 -0.02794366717552724    7    4    4    4
 -0.003412524405666483    7    4    5    1
 0.01820542876038087    7    4    5    2
 0.001047325946506644    7    4    5    3
 0.05486979442408411    7    4    5    4
 0.04327880323642109    7    4    5    5
 -0.01687628133579696    7    4    6    1
 -0.0008086871053379619    7    4    6    2
 0.005047379017291456    7    4    6    3
 0.001552799319874387    7    4    6    4
 -0.03401157248738598    7    4    6    5
 -0.04920708256109547    7    4    6    6
 -0.01667412816253886    7    4    7    1
 0.01720050691218343    7    4    7    2
 0.006127245393946323    7    4    7    3
 0.03945158512680418    7    4    7    4
 0.006852487078693133    7    5    1    1
 0.004897365303650724    7    5    2    1
 0.002962584906865685    7    5    2    2
 -0.002918860636054042    7    5    3    1
 0.01345581324778657    7    5    3    2
 -0.004898920132041227    7    5    3    3
 0.006138181379693192    7    5    4    1
 0.006449526303883174    7    5    4    2
 -0.004237372074386582    7    5    4    3
 0.01453079963243257    7    5    4    4
 -0.001498761235409967    7    5    5    1
 -0.006773712375604138    7    5    5    2
 0.00355385555640936    7    5    5    3
 -0.01437365518406368    7    5    5    4
 -0.02121743253577246    7    5    5    5
 0.004710450457606171    7    5    6    1
 0.006321859350017305    7    5    6    2
 -0.004260995863590795    7    5    6    3
 0.0008345521310476008    7    5    6    4
 0.01802884733224882    7    5    6    5
 0.003814315808997775    7    5    6    6
 0.008584237350424267    7    5    7    1
 0.002534212782867241    7    5    7    2
 -0.01266993605073322    7    5    7    3
 -0.008435531218351276    7    5    7    4
 0.02281706178116931    7    5    7    5
 0.01734266120248499    7    6    1    1
 -0.02710563537643227    7    6    2    1
 -0.01192072272322322    7    6    2    2
 -0.001487949649208461    7    6    3    1
 -0.05900992898087157    7    6    3    2
 0.01054879584899116    7    6    3    3
 -0.04070789190353744    7    6    4    1
 -0.007793279908014502    7    6    4    2
 0.01981550496231506    7    6    4    3
 -0.03942711710762927    7    6    4    4
 -0.001265354166490145    7    6    5    1
 0.02681142309190929    7    6    5    2
 -0.001059652556857167    7    6    5    3
 0.07327741010520844    7    6    5    4
 0.06609163548048125    7    6    5    5
 -0.0244730116870954    7    6    6    1
 0.001652623619712476    7    6    6    2
 0.01531778786927882    7    6    6    3
 0.001180205772918615    7    6    6    4
 -0.06137067941804258    7    6    6    5
 -0.09023441116849547    7    6    6    6
 -0.0192171348727645    7    6    7    1
 0.01609308926940881    7    6    7    2
 0.0111518780621599    7    6    7    3
 0.0500816606386171    7    6    7    4
 -0.02064919258486315    7    6    7    5
 0.08480570514861976    7    6    7    6
 0.3717981473897838    7    7    1    1
 -0.02106205815096824    7    7    2    1
 0.2478318326925766    7    7    2    2
 -0.02865104319664122    7    7    3    1
 -0.04774705865245134    7    7    3    2
 0.2561713722968152    7    7    3    3
 -0.03302056894235063    7    7    4    1
 0.03163003432904292    7    7    4    2
 0.02226296171050553    7    7    4    3
 0.3041656850213999    7    7    4    4
 -0.009293167711694809    7    7    5    1
 0.02432727219137356    7    7    5    2
 -0.01310203132968723    7    7    5    3
 0.06275079776983304    7    7    5    4
 0.4049192877596797    7    7    5    5
 -0.01917444239521657    7    7    6    1
 0.003702383677695755    7    7    6    2
 0.01116260066032899    7    7    6    3
 0.01200959858164473    7    7    6    4
 -0.05035529465442767    7    7    6    5
 0.3018427603270541    7    7    6    6
 -0.0308034854164739    7    7    7    1
 0.01814051823584384    7    7    7    2
 0.006513372614629478    7    7    7    3
 0.04601784257552746    7    7    7    4
 -0.01637539576731148    7    7    7    5
 0.06796272718974512    7    7    7    6
 0.4426878651892893    7    7    7    7
 0.002042673788445256    8    1    1    1
 -0.00480762067775591    8    1    2    1
 -0.00232243325679762    8    1    2    2
 -0.001315527040299191    8    1    3    1
 -0.004974260137833401    8    1    3    2
 0.0004390643167910108    8    1    3    3
 -0.006247518890298403    8    1    4    1
 -0.001966181406766711    8    1    4    2
 0.002337043016182999    8    1    4    3
 -0.007988249112447094    8    1    4    4
 0.0008613723356160748    8    1    5    1
 0.003007909981274489    8    1    5    2
 0.0001070776852580179    8    1    5    3
 0.01113965661003364    8    1    5    4
 0.005972807230292455    8    1    5    5
 -0.004039326563958684    8    1    6    1
 -0.0001305551606565998    8    1    6    2
 0.001078085134722804    8    1    6    3
 0.001264154221392614    8    1    6    4
 -0.007838866610018013    8    1    6    5
 -0.01310209308923404    8    1    6    6
 -0.0005051283749730697    8    1    7    1
 0.002222342932499154    8    1    7    2
 0.0005703072050070278    8    1    7    3
 0.00568123427407966    8    1    7    4
 -0.001293729615454118    8    1    7    5
 0.008473601431344914    8    1    7    6
 0.005750735567342923    8    1    7    7
 0.01558312519033099    8    1    8    1
 -0.001879139721194645    8    2    1    1
 0.0001168963315059408    8    2    2    1
 0.001676301246190681    8    2    2    2
 0.001582051585218644    8    2    3    1
 0.0006980957832543264    8    2    3    2
 0.001528354565602521    8    2    3    3
 0.000456155712104034    8    2    4    1
 0.0006838964608905437    8    2    4    2
 -3.520345399024352e-06    8    2    4    3
 0.001883613090662922    8    2    4    4
 -0.001398275843607287    8    2    5    1
 -0.0004327668716423847    8    2    5    2
 -0.0001972110551655399    8    2    5    3
 -0.0007096506130458886    8    2    5    4
 0.001865041421585804    8    2    5    5
 0.0001218511575534989    8    2    6    1
 0.0002623789761209347    8    2    6    2
 0.0003497879917660617    8    2    6    3
 -0.0001859497729250562    8    2    6    4
 0.0003211588859723705    8    2    6    5
 0.003733401491487198    8    2    6    6
 -0.002661056317968273    8    2    7    1
 -0.000685065355750178    8    2    7    2
 -0.00134640425117676    8    2    7    3
 -0.000223570781479341    8    2    7    4
 -0.0004526459598108959    8    2    7    5
 -0.001428063919663706    8    2    7    6
 0.003309339300391934    8    2    7    7
 -3.87642993736227e-05    8    2    8    1
 0.008039946277415479    8    2    8    2
 -0.002048457769020011    8    3    1    1
 0.003920079492718294    8    3    2    1
 0.002282400745696514    8    3    2    2
 0.0007761925755393346    8    3    3    1
 0.007288035529448312    8    3    3    2
 -0.0005726298419672842    8    3    3    3
 0.005777926434383052    8    3    4    1
 0.001570785861854705    8    3    4    2
 -0.002172854335013933    8    3    4    3
 0.006694320145066963    8    3    4    4
 -0.0003300395760866083    8    3    5    1
 -0.003365387115612234    8    3    5    2
 -0.0003574800759612193    8    3    5    3
 -0.0100044786159344    8    3    5    4
 -0.005829260957265548    8    3    5    5
 0.002713598534258778    8    3    6    1
 0.0003888591015327528    8    3    6    2
 -1.660555365499584e-05    8    3    6    3
 -0.0009240307071260626    8    3    6    4
 0.006542137476519363    8    3    6    5
 0.01180996236795941    8    3    6    6
 0.0007365148418932176    8    3    7    1
 -0.004313567199926007    8    3    7    2
 -0.0006006242848365833    8    3    7    3
 -0.005677042634568426    8    3    7    4
 0.001635807761702352    8    3    7    5
 -0.009989409596457891    8    3    7    6
 -0.006637794641322194    8    3    7    7
 -0.001886540402663045    8    3    8    1
 0.001793584524485009    8    3    8    2
 0.007642796410156145    8    3    8    3
 -0.001179816417953777    8    4    1    1
 0.0008314321270691124    8    4    2    1
 0.002522138269527203    8    4    2    2
 0.002783168332023371    8    4    3    1
 0.002159310020134686    8    4    3    2
 0.001254943016164781    8    4    3    3
 0.001921223495608837    8    4    4    1
 0.0008972788755934054    8    4    4    2
 -0.0007457800304483346    8    4    4    3
 0.006806440061978544    8    4    4    4
 -0.002715285128107748    8    4    5    1
 -0.0008655457706948608    8    4    5    2
 0.0003925539602355344    8    4    5    3
 -0.003029923624381853    8    4    5    4
 0.006807098014055829    8    4    5    5
 0.00129051281044166    8    4    6    1
 -0.000208561533534737    8    4    6    2
 -0.0003944954656323118    8    4    6    3
 -0.002235930240961683    8    4    6    4
 0.002513603848749014    8    4    6    5
 0.01013803328993989    8    4    6    6
 -0.006407259557072085    8    4    7    1
 -0.0006530342608953206    8    4    7    2
 0.001477943371267789    8    4    7    3
 -0.001655057903681587    8    4    7    4
 0.0006721303686002369    8    4    7    5
 -0.001742129867325529    8    4    7    6
 0.002228582568469967    8    4    7    7
 -0.0004438358292293589    8    4    8    1
 0.0005417274106952956    8    4    8    2
 0.000272447004093163    8    4    8    3
 0.009911201010243169    8    4    8    4
 0.003234385215397825    8    5    1    1
 -0.004178609390308743    8    5    2    1
 -0.00243174476558122    8    5    2    2
 -0.001023377998918881    8    5    3    1
 -0.008579766449495639    8    5    3    2
 0.0009934975570560602    8    5    3    3
 -0.006534969130085571    8    5    4    1
 -0.001540565885902269    8    5    4    2
 0.003137115993208607    8    5    4    3
 -0.007999064488283809    8    5    4    4
 0.0005540401828426241    8    5    5    1
 0.003610722765124023    8    5    5    2
 0.0002014021493999037    8    5    5    3
 0.0144775737729938    8    5    5    4
 0.0097833792113893    8    5    5    5
 -0.004078627655552527    8    5    6    1
 -0.0001143942213238181    8    5    6    2
 0.001281515983545172    8    5    6    3
 0.001428579151380164    8    5    6    4
 -0.009631374405125176    8    5    6    5
 -0.01361368833198125    8    5    6    6
 -0.001402315248372943    8    5    7    1
 0.00287460164242845    8    5    7    2
 0.00131517329625391    8    5    7    3
 0.008719411168977185    8    5    7    4
 -0.001075582786850212    8    5    7    5
 0.00951750296621913    8    5    7    6
 0.007985702947311385    8    5    7    7
 0.00278476013018954    8    5    8    1
 -0.001098532763362588    8    5    8    2
 0.001821427119080509    8    5    8    3
 -0.0018449162076353    8    5    8    4
 0.01069237899635041    8    5    8    5
 -0.002488308336617348    8    6    1    1
 0.0007362712995438975    8    6    2    1
 0.00143541970391316    8    6    2    2
 0.001390067175862336    8    6    3    1
 0.001982680630832257    8    6    3    2
 0.0009624192994990226    8    6    3    3
 0.001514509703196823    8    6    4    1
 0.0006504483575394946    8    6    4    2
 -0.0005819118694166207    8    6    4    3
 0.001739845734213851    8    6    4    4
 -0.001742056066559083    8    6    5    1
 -0.0009072581295399105    8    6    5    2
 0.000144910410096206    8    6    5    3
 -0.001997320334949985    8    6    5    4
 -0.001025683775948497    8    6    5    5
 -0.0002660843196149962    8    6    6    1
 0.000482582852380395    8    6    6    2
 0.0008631952524199155    8    6    6    3
 0.0004024795769508135    8    6    6    4
 0.0008397019267562942    8    6    6    5
 0.004990053484658586    8    6    6    6
 -0.001678450569787025    8    6    7    1
 -0.001471490386186644    8    6    7    2
 -0.001570155300556304    8    6    7    3
 -0.0008542373067578614    8    6    7    4
 -0.0009182564827792266    8    6    7    5
 -0.00457681683014928    8    6    7    6
 0.002722973174386651    8    6    7    7
 -4.149141396644264e-05    8    6    8    1
 0.008135917619873746    8    6    8    2
 0.003773485447676457    8    6    8    3
 -0.002142418877595343    8    6    8    4
 0.0007148032961234313    8    6    8    5
 0.01585446491769666    8    6    8    6
 0.007041196878034048    8    7    1    1
 -0.01144022293369425    8    7    2    1
 -0.006227572468735862    8    7    2    2
 -0.002038516777195076    8    7    3    1
 -0.02366869425451755    8    7    3    2
 0.003048689283082236    8    7    3    3
 -0.01798721969510023    8    7    4    1
 -0.003853036800832205    8    7    4    2
 0.008501518730455359    8    7    4    3
 -0.02021080417839381    8    7    4    4
 0.0001243642932941568    8    7    5    1
 0.009604836112903817    8    7    5    2
 0.001112047731498316    8    7    5    3
 0.03432565655991342    8    7    5    4
 0.02275664212299496    8    7    5    5
 -0.008399640429562146    8    7    6    1
 -0.0006603170111389592    8    7    6    2
 0.001171614191212415    8    7    6    3
 0.003312132958134169    8    7    6    4
 -0.02267822056742595    8    7    6    5
 -0.03589077378058635    8    7    6    6
 -0.003815267926417253    8    7    7    1
 0.01037133249564511    8    7    7    2
 0.00185030748849646    8    7    7    3
 0.02042274207561133    8    7    7    4
 -0.005047624363810833    8    7    7    5
 0.03065542694329731    8    7    7    6
 0.02541601588544544    8    7    7    7
 0.003999436361284488    8    7    8    1
 -0.0004470379114006067    8    7    8    2
 -0.00936576389724415    8    7    8    3
 -0.002636749133686171    8    7    8    4
 0.002649654306722851    8    7    8    5
 -0.003174157682112233    8    7    8    6
 0.02451184717863786    8    7    8    7
 0.3432052144818398    8    8    1    1
 0.01164736111630184    8    8    2    1
 0.2603175546582605    8    8    2    2
 -0.02164317174549271    8    8    3    1
 0.02223106124438715    8    8    3    2
 0.2427929918287796    8    8    3    3
 0.01919294902219792    8    8    4    1
 0.03857566116880212    8    8    4    2
 -0.002552959994928699    8    8    4    3
 0.3659854378731884    8    8    4    4
 -0.01420084206034136    8    8    5    1
 -0.00864283266493978    8    8    5    2
 -0.0005067840777667252    8    8    5    3
 -0.02911097752235632    8    8    5    4
 0.341373543501102    8    8    5    5
 0.008246287927186647    8    8    6    1
 0.01061533854941884    8    8    6    2
 0.001794238130688383    8    8    6    3
 -0.00786449649515766    8    8    6    4
 0.02139665179617548    8    8    6    5
 0.3875423287209061    8    8    6    6
 -0.01428661815209815    8    8    7    1
 -0.00452659112535613    8    8    7    2
 -0.008425886255076172    8    8    7    3
 -0.01517066948338693    8    8    7    4
 0.008951218931579604    8    8    7    5
 -0.024546417393145    8    8    7    6
 0.3428273304895844    8    8    7    7
 -0.006586245210000041    8    8    8    1
 0.002859059159607352    8    8    8    2
 0.005422176022907666    8    8    8    3
 0.008280939886074071    8    8    8    4
 -0.00596854800816714    8    8    8    5
 0.002879463004217712    8    8    8    6
 -0.0152142182432237    8    8    8    7
 0.4023093791844831    8    8    8    8
 0.0001339741453866765    9    1    1    1
 -0.0001609072283937322    9    1    2    1
 0.002351229580157594    9    1    2    2
 0.002388001949869954    9    1    3    1
 0.0003035487988235726    9    1    3    2
 0.00103884982437563    9    1    3    3
 0.0005224334266380647    9    1    4    1
 0.0014096856665965    9    1    4    2
 3.07094390052387e-05    9    1    4    3
 0.005539537131434216    9    1    4    4
 -0.001908947258929672    9    1    5    1
 -0.0001403357244957182    9    1    5    2
 0.0003255533327624577    9    1    5    3
 0.0003163938869895761    9    1    5    4
 0.007077650374045575    9    1    5    5
 0.0002604965528283021    9    1    6    1
 8.625262567780061e-05    9    1    6    2
 -0.0001081784951842456    9    1    6    3
 -0.0007904202294224596    9    1    6    4
 0.0004331724439410131    9    1    6    5
 0.006999152968102665    9    1    6    6
 -0.00516908589637208    9    1    7    1
 1.493987921035858e-06    9    1    7    2
 0.001428232881248523    9    1    7    3
 0.0005794109590181098    9    1    7    4
 -0.0006280447400270109    9    1    7    5
 -0.000172886271948171    9    1    7    6
 0.002959784193342943    9    1    7    7
 0.001186890019449555    9    1    8    1
 -0.0001882452729547332    9    1    8    2
 0.0004910660597918058    9    1    8    3
 -1.912823429210647e-05    9    1    8    4
 -6.131107875981866e-05    9    1    8    5
 -0.0002086999043632816    9    1    8    6
 -0.001815163659801566    9    1    8    7
 0.007084534811690473    9    1    8    8
 0.01216006443124127    9    1    9    1
 -0.0005850235619171879    9    2    1    1
 0.0005023248784404333    9    2    2    1
 -6.036574389850709e-05    9    2    2    2
 -8.632462066973944e-05    9    2    3    1
 0.001203123148619765    9    2    3    2
 -0.0005758364526178766    9    2    3    3