 &FCI NORB=  16,NELEC=18,MS2=0,
  ORBSYM=1,1,1,1,1,1,1,1,1,1,1,1,1,1,1,1,
  ISYM=1,
 &END
 0.9843270554891341    1    1    1    1
 -0.005142989612334086    2    1    1    1
 0.03646776823136799    2    1    2    1
 0.9199135103071465    2    2    1    1
 -0.005504012771738322    2    2    2    1
 1.002406146292055    2    2    2    2
 0.001233544963980248    3    1    1    1
 0.00161577284329949    3    1    2    1
 -0.002892600670710869    3    1    2    2
 0.04086709328908662    3    1    3    1
 -0.004080848829774728    3    2    1    1
 0.0017973463764738    3    2    2    1
 0.0008821125830753822    3    2    2    2
 -0.006802908675649132    3    2    3    1
 0.04762334066659657    3    2    3    2
 0.9107646534103448    3    3    1    1
 0.007330926315794573    3    3    2    1
 0.9044596108657957    3    3    2    2
 0.0004807396213500868    3    3    3    1
 0.0004897839141937508    3    3    3    2
 1.001052897813109    3    3    3    3
 -0.001117103234384948    4    1    1    1
 0.003019304772537096    4    1    2    1
 0.007441425609890936    4    1    2    2
 -0.008013168686704725    4    1    3    1
 0.01991395847848593    4    1    3    2
 0.001408309374053052    4    1    3    3
 0.05495900521457735    4    1    4    1
 -0.009743394356948499    4    2    1    1
 -0.002809486090148928    4    2    2    1
 -0.003061583339012372    4    2    2    2
 -0.01411182157520298    4    2    3    1
 0.004264316797787642    4    2    3    2
 -0.003500156135313922    4    2    3    3
 0.00382529705817267    4    2    4    1
 0.05282620899072113    4    2    4    2
 0.0144427837699056    4    3    1    1
 -0.004657665880294763    4    3    2    1
 -0.004265592767952547    4    3    2    2
 -0.0003795023196791586    4    3    3    1
 -0.000117252439579657    4    3    3    2
 0.002339366933740436    4    3    3    3
 -0.001905899213491257    4    3    4    1
 -0.003124421694731254    4    3    4    2
 0.05014424264976232    4    3    4    3
 0.878508555217708    4    4    1    1
 -0.008061903406777602    4    4    2    1
 0.8862429729131868    4    4    2    2
 0.002988314814105421    4    4    3    1
 0.005416362211870376    4    4    3    2
 0.8882251146160992    4    4    3    3
 0.0002181400209073665    4    4    4    1
 -0.003329901128395136    4    4    4    2
 0.002156462820210838    4    4    4    3
 0.976666577492339    4    4    4    4
 0.0004080608526196537    5    1    1    1
 -0.00388176339137067    5    1    2    1
 0.01741737469128274    5    1    2    2
 0.001863781902334975    5    1    3    1
 -0.001812717769106379    5    1    3    2
 -0.01739471680828963    5    1    3    3
 0.001087808805032702    5    1    4    1
 -0.003157893432809515    5    1    4    2
 -0.009031837776754804    5    1    4    3
 -0.001522796328936038    5    1    4    4
 0.04056350107911237    5    1    5    1
 0.00552495810307964    5    2    1    1
 -0.007899543925620065    5    2    2    1
 0.0005975392167093287    5    2    2    2
 -0.001281419232112057    5    2    3    1
 0.002323629288603989    5    2    3    2
 -0.01418834061966923    5    2    3    3
 0.001153491171881571    5    2    4    1
 -0.001204460465583055    5    2    4    2
 0.01273988314171356    5    2    4    3
 0.005601428289280211    5    2    4    4
 0.002697593864720099    5    2    5    1
 0.03594305381510345    5    2    5    2
 -0.002277859803853082    5    3    1    1
 0.00321726331741695    5    3    2    1
 -0.00395646170668658    5    3    2    2
 0.006938146645242144    5    3    3    1
 0.005973350013794988    5    3    3    2
 0.001159042291594653    5    3    3    3
 0.006265851916107339    5    3    4    1
 -0.01287696323766838    5    3    4    2
 9.520095581265259e-05    5    3    4    3
 0.008570184483710538    5    3    4    4
 -0.0001942557724012375    5    3    5    1
 0.0005396885373247411    5    3    5    2
 0.03399284987680987    5    3    5    3
 -0.002048634544416447    5    4    1    1
 0.001546760223340791    5    4    2    1
 0.001098391617679985    5    4    2    2
 0.002206008053344374    5    4    3    1
 -6.426319018725413e-05    5    4    3    2
 -0.0005623245909125253    5    4    3    3
 0.0006251638176602018    5    4    4    1
 -0.003114212604563371    5    4    4    2
 -0.003825979232532318    5    4    4    3
 -0.0005561855341895839    5    4    4    4
 0.002619955300248163    5    4    5    1
 -0.002422593124746665    5    4    5    2
 0.002389761691487454    5    4    5    3
 0.02225112537587264    5    4    5    4
 0.7163203861615903    5    5    1    1
 -0.005556245393822401    5    5    2    1
 0.7252271905430796    5    5    2    2
 0.0007053316373453519    5    5    3    1
 -0.0009391886277898571    5    5    3    2
 0.7285099600889872    5    5    3    3
 -0.005379553749161454    5    5    4    1
 0.003295315657734321    5    5    4    2
 -0.003656220895658448    5    5    4    3
 0.7454796420621415    5    5    4    4
 -0.001592633280055378    5    5    5    1
 -0.001235952599665639    5    5    5    2
 0.0005551811138875332    5    5    5    3
 -0.0006981983160868899    5    5    5    4
 0.6637218341741219    5    5    5    5
 0.0006576034628553054    6    1    1    1
 -0.0001502426737599065    6    1    2    1
 0.002165565940440615    6    1    2    2
 0.0008154803316775998    6    1    3    1
 -0.0009223753838424058    6    1    3    2
 0.001973737113157202    6    1    3    3
 -0.001537807281893787    6    1    4    1
 0.0001155372135266993    6    1    4    2
 -0.002149992332655519    6    1    4    3
 0.006116260635025164    6    1    4    4
 0.001077042489952725    6    1    5    1
 -0.0009983986208051984    6    1    5    2
 0.0002745862667077342    6    1    5    3
 0.0003550768670516376    6    1    5    4
 0.006830647913600387    6    1    5    5
 0.001391288240511156    6    1    6    1
 0.0007337527524172382    6    2    1    1
 -0.001461973741334332    6    2    2    1
 -0.0006524370393116066    6    2    2    2
 -0.0009542430807340833    6    2    3    1
 0.001124695072684769    6    2    3    2
 -0.001333226136835743    6    2    3    3
 0.0004941768570821677    6    2    4    1
 0.001111666030451138    6    2    4    2
 0.002779448588509937    6    2    4    3
 0.00348394470179088    6    2    4    4
 -0.001007802954092219    6    2    5    1
 0.003314028374676588    6    2    5    2
 -8.383300795645205e-05    6    2    5    3
 -0.0007812888707962128    6    2    5    4
 0.002440138282444955    6    2    5    5
 -7.818062596635705e-05    6    2    6    1
 0.001566672882032031    6    2    6    2
 -0.0008241044640626898    6    3    1    1
 -0.0008372651636813076    6    3    2    1
 -0.0007286030475269455    6    3    2    2
 -0.001066883420281595    6    3    3    1
 -0.002041876680491035    6    3    3    2
 -0.002078863010733626    6    3    3    3
 -0.002249974558167108    6    3    4    1
 0.002447979312065232    6    3    4    2
 6.245845214388978e-05    6    3    4    3
 -0.003394870507294299    6    3    4    4
 0.0002325194490312349    6    3    5    1
 -6.182085165696129e-05    6    3    5    2
 -0.002918990282157642    6    3    5    3
 -0.0005336794634444845    6    3    5    4
 -0.001145927343232372    6    3    5    5
 4.61948796750232e-06    6    3    6    1
 -4.024922910362497e-05    6    3    6    2
 0.001473571835346011    6    3    6    3
 -0.003143553212268314    6    4    1    1
 0.0004124527192748347    6    4    2    1
 -5.199084584419462e-05    6    4    2    2
 -0.002571824092131538    6    4    3    1
 0.003255613207560392    6    4    3    2
 -0.001317260537550993    6    4    3    3
 0.004075370827307557    6    4    4    1
 0.003250797549488812    6    4    4    2
 -0.001999928842932793    6    4    4    3
 -0.001193229414213897    6    4    4    4
 0.0003610349554499992    6    4    5    1
 -0.0007958407307497211    6    4    5    2
 -0.0005262142281745397    6    4    5    3
 0.0003213214061076262    6    4    5    4
 -0.0004460015561340835    6    4    5    5
 -0.0001535109199618957    6    4    6    1
 0.0002809682637211191    6    4    6    2
 -0.0002315402348932009    6    4    6    3
 0.00258375535340618    6    4    6    4
 0.002568975567934103    6    5    1    1
 -0.002416887354233696    6    5    2    1
 0.007995496384046794    6    5    2    2
 0.0006903572182410351    6    5    3    1
 -0.000185521552136255    6    5    3    2
 -0.006774501231530733    6    5    3    3
 0.0008014357548369903    6    5    4    1
 -0.00181038676242914    6    5    4    2
 -0.001366495941946754    6    5    4    3
 0.00128412056175406    6    5    4    4
 0.008570458322291051    6    5    5    1
 0.003616719682331217    6    5    5    2
 0.000309381795699764    6    5    5    3
 0.0009757445874551303    6    5    5    4
 -0.005915799207339308    6    5    5    5
 -0.0003751325869893272    6    5    6    1
 -0.000206218396755792    6    5    6    2
 -0.0002959622944718179    6    5    6    3
 -0.0001204797274742321    6    5    6    4
 0.02495282353016122    6    5    6    5
 0.3514302658034457    6    6    1    1
 -0.001632188182065064    6    6    2    1
 0.3544673146363583    6    6    2    2
 0.0001656578317611665    6    6    3    1
 -3.312186150704072e-05    6    6    3    2
 0.3543551157713917    6    6    3    3
 -0.0009076000376934913    6    6    4    1
 0.0006090696795131032    6    6    4    2
 -0.001004996366354639    6    6    4    3
 0.3590798889523265    6    6    4    4
 -0.0002479666844927425    6    6    5    1
 -0.0003702558875855353    6    6    5    2
 -0.0001003684524234598    6    6    5    3
 -0.0002325051298069469    6    6    5    4
 0.3512742348523221    6    6    5    5
 0.003427988224834144    6    6    6    1
 0.001396917182600821    6    6    6    2
 -0.0003140357026799601    6    6    6    3
 0.0002666196095392204    6    6    6    4
 -0.002633682479103283    6    6    6    5
 0.3109039028312069    6    6    6    6
 0.002865114056855271    7    1    1    1
 4.749613647553826e-05    7    1    2    1
 0.002372105175642867    7    1    2    2
 -0.0002687275458319033    7    1    3    1
 0.0002428652197119003    7    1    3    2
 0.002234854603727728    7    1    3    3
 0.0004570729526029727    7    1    4    1
 -6.311489135017517e-05    7    1    4    2
 0.0005839379619800707    7    1    4    3
 0.001008532771214028    7    1    4    4
 -6.569347155089925e-05    7    1    5    1
 0.0002878652906806384    7    1    5    2
 -0.0001021181560204823    7    1    5    3
 -8.91223673191979e-05    7    1    5    4
 0.0003873491767238874    7    1    5    5
 -0.0003207946357372709    7    1    6    1
 3.704313126588516e-05    7    1    6    2
 -1.154364403670605e-06    7    1    6    3
 2.51766714080552e-05    7    1    6    4
 -2.580753486352378e-06    7    1    6    5
 0.0002974787673082697    7    1    6    6
 0.0002475133079919887    7    1    7    1
 0.0009439491188479905    7    2    1    1
 0.0004470933442753994    7    2    2    1
 0.001389731180560614    7    2    2    2
 0.0002566302848203633    7    2    3    1
 -0.0003564216511586662    7    2    3    2
 0.001404325452981107    7    2    3    3
 -0.0001414458800807725    7    2    4    1
 -0.0003109903826214024    7    2    4    2
 -0.0006950838078608815    7    2    4    3
 0.0001060254701470705    7    2    4    4
 0.0002986265176530043    7    2    5    1
 -0.0007062675542248547    7    2    5    2
 6.297797518472849e-06    7    2    5    3
 0.0002007896639642966    7    2    5    4
 0.0001899557909850536    7    2    5    5
 4.069970725410353e-05    7    2    6    1
 -0.0004117100472597777    7    2    6    2
 1.287938684249267e-05    7    2    6    3
 -9.146453735006024e-05    7    2    6    4
 3.246338665832178e-05    7    2    6    5
 5.678718952885815e-05    7    2    6    6
 4.195004811506076e-05    7    2    7    1
 0.0001469931844490496    7    2    7    2
 -0.00105509852382338    7    3    1    1
 0.0002395836191530621    7    3    2    1
 -0.001087368046615197    7    3    2    2
 0.0004747855291080672    7    3    3    1
 0.0006410244647759634    7    3    3    2
 -0.0009156722390093196    7    3    3    3
 0.0006540304164444379    7    3    4    1
 -0.0007888870065756538    7    3    4    2
 -7.036998898823186e-06    7    3    4    3
 -0.000272853426039658    7    3    4    4
 -4.906086716597753e-05    7    3    5    1
 4.054398268672944e-05    7    3    5    2
 0.001012706713569994    7    3    5    3
 0.0001672105220419024    7    3    5    4
 -0.0006885300186298648    7    3    5    5
 3.328125813242399e-06    7    3    6    1
 1.287751610282682e-05    7    3    6    2
 -0.0004075685469457606    7    3    6    3
 3.219762906605085e-05    7    3    6    4
 6.935384323659153e-05    7    3    6    5
 -0.0002366064500760677    7    3    6    6
 -5.907775547767244e-05    7    3    7    1
 -3.228914426703486e-05    7    3    7    2
 0.000197949719398045    7    3    7    3
 0.0008654023592985464    7    4    1    1
 -8.731245901854742e-05    7    4    2    1
 0.0001277145351615167    7    4    2    2
 0.0006639569721642064    7    4    3    1
 -0.0008089804263088482    7    4    3    2
 0.0004086675476630259    7    4    3    3
 -0.0009249937856916249    7    4    4    1
 -0.0008009467619073997    7    4    4    2
 0.0004063961472817407    7    4    4    3
 0.0003606318616785374    7    4    4    4
 -6.049259398666443e-05    7    4    5    1
 0.0001773215137396252    7    4    5    2
 0.0001504964523090365    7    4    5    3
 2.694784268248575e-05    7    4    5    4
 0.0001275940020436511    7    4    5    5
 2.645123820440803e-05    7    4    6    1
 -7.071897439896825e-05    7    4    6    2
 2.798253276965843e-05    7    4    6    3
 -0.0005172761415694432    7    4    6    4
 5.30984014026689e-05    7    4    6    5
 -0.000112929673207978    7    4    6    6
 -3.351875435721847e-05    7    4    7    1
 4.849027354066467e-05    7    4    7    2
 -2.141025548448215e-05    7    4    7    3
 0.000255586311915154    7    4    7    4
 -0.001428792751072864    7    5    1    1
 0.0005368617343788853    7    5    2    1
 -0.002720555579427843    7    5    2    2
 -0.0002661564153060509    7    5    3    1
 -3.63450670032658e-05    7    5    3    2
 0.0007620365204702659    7    5    3    3
 -0.0002894772685736051    7    5    4    1
 0.0006349489442545564    7    5    4    2
 0.000310126860937863    7    5    4    3
 -0.001217830011653371    7    5    4    4
 -0.001933357639539098    7    5    5    1
 -0.0008380813993568818    7    5    5    2
 -0.0002881209042591487    7    5    5    3
 -0.0002880897429119759    7    5    5    4
 0.0002168704917104676    7    5    5    5
 -0.0001038449342857045    7    5    6    1
 -7.972056380805594e-06    7    5    6    2
 8.864224997201737e-05    7    5    6    3
 7.53671153427035e-05    7    5    6    4
 -0.005179662671463713    7    5    6    5
 -0.003018091639982705    7    5    6    6
 -0.000394638876759469    7    5    7    1
 -0.0001552790641912716    7    5    7    2
 1.045302289029636e-05    7    5    7    3
 -1.18343654020701e-06    7    5    7    4
 0.003564507892115807    7    5    7    5
 -0.03213867025159996    7    6    1    1
 0.0006031437733756862    7    6    2    1
 -0.03321752041944701    7    6    2    2
 2.876029216541248e-05    7    6    3    1
 0.0001195564975456941    7    6    3    2
 -0.03199588746609985    7    6    3    3
 0.0002322114089257621    7    6    4    1
 -0.0004872957041429542    7    6    4    2
 0.0001958736056992924    7    6    4    3
 -0.0327556634723359    7    6    4    4
 -0.001040005589208737    7    6    5    1
 -0.0002816495914041445    7    6    5    2
 0.0003745824867999771    7    6    5    3
 0.0001658789582335257    7    6    5    4
 -0.02941898151109145    7    6    5    5
 -0.0002514659976243887    7    6    6    1
 -0.0001675062612872397    7    6    6    2
 0.0006755240127565287    7    6    6    3
 -0.0002489308976259576    7    6    6    4
 -0.0048110708864312    7    6    6    5
 -0.01096176322236839    7    6    6    6
 0.0001126170045380875    7    6    7    1
 4.366210241492363e-05    7    6    7    2
 0.0003407593105570345    7    6    7    3
 0.0001272996286539917    7    6    7    4
 -0.00187878679436241    7    6    7    5
 0.03901244412683141    7    6    7    6
 0.218626104834838    7    7    1    1
 0.0004366865055505185    7    7    2    1
 0.2176095515165643    7    7    2    2
 -0.0004080126928890024    7    7    3    1
 -0.0001025111739680341    7    7    3    2
 0.2212230895702099    7    7    3    3
 -0.0004130123889824857    7    7    4    1
 -2.737132066148119e-05    7    7    4    2
 -0.0001011650573711836    7    7    4    3
 0.2212691592070339    7    7    4    4
 -0.003663747961225955    7    7    5    1
 -0.001382032335480798    7    7    5    2
 2.258262666795033e-05    7    7    5    3
 7.745020421891821e-05    7    7    5    4
 0.2263980279115633    7    7    5    5
 0.001422213908497838    7    7    6    1
 0.0004307220804359302    7    7    6    2
 0.00234414842093765    7    7    6    3
 -0.00039538693162397    7    7    6    4
 -0.01681606376761806    7    7    6    5
 0.2504743990950015    7    7    6    6
 -0.0006129176770874323    7    7    7    1
 -0.000264329111950623    7    7    7    2
 0.0008706197153862671    7    7    7    3
 0.0004380168624773043    7    7    7    4
 0.0005752179789662026    7    7    7    5
 0.1242612194900556    7    7    7    6
 0.7148501005418777    7    7    7    7
 0.008288501377264064    8    1    1    1
 0.0004888942069282633    8    1    2    1
 0.00581230901131844    8    1    2    2
 -0.0007200600146393245    8    1    3    1
 0.0008365296873590055    8    1    3    2
 0.005526195389146133    8    1    3    3
 0.001844594798304496    8    1    4    1
 -0.0005712293495689195    8    1    4    2
 0.002342832319999458    8    1    4    3
 -2.693099848710418e-06    8    1    4    4
 -0.0006686282550184672    8    1    5    1
 0.0008090056293542627    8    1    5    2
 -0.0002573738634326454    8    1    5    3
 -0.0003573250899079443    8    1    5    4
 0.0005586423565766788    8    1    5    5
 -0.0004736389381944338    8    1    6    1
 -8.407493660510246e-06    8    1    6    2
 3.018239919235118e-06    8    1    6    3
 -0.0001261953757235221    8    1    6    4
 -0.0001394948840242344    8    1    6    5
 0.003100172526592366    8    1    6    6
 0.0002127901172329374    8    1    7    1
 3.487050231524343e-05    8    1    7    2
 -4.64751899858719e-05    8    1    7    3
 2.655015593191763e-05    8    1    7    4
 -3.533395553706139e-05    8    1    7    5
 -0.0004329865156679889    8    1    7    6
 0.001362141758988308    8    1    7    7
 0.001931212108472008    8    1    8    1
 0.002240430355050434    8    2    1    1
 0.001855911517033234    8    2    2    1
 0.003716215602414234    8    2    2    2
 0.0008047723296580511    8    2    3    1
 -0.0008970681321489452    8    2    3    2
 0.003794255532635786    8    2    3    3
 -0.0002020263820128537    8    2    4    1
 -0.001146961307773372    8    2    4    2
 -0.002311855608004906    8    2    4    3
 -0.001354568065943478    8    2    4    4
 0.0008161419198253293    8    2    5    1
 -0.002576718173115513    8    2    5    2
 7.703260135721487e-05    8    2    5    3
 0.0006807076718112787    8    2    5    4
 0.0002744599509366022    8    2    5    5
 -7.858378774093597e-06    8    2    6    1
 -0.0005215609248679014    8    2    6    2
 -2.834380092595849e-05    8    2    6    3
 0.0001025922817448948    8    2    6    4
 -4.517952994658727e-05    8    2    6    5
 0.001367849410432265    8    2    6    6
 3.805015391132588e-05    8    2    7    1
 0.0001525731465261057    8    2    7    2
 -1.719239329813979e-05    8    2    7    3
 -1.737107031382954e-05    8    2    7    4
 -2.700381174146923e-05    8    2    7    5
 -0.0001601106277332448    8    2    7    6
 0.0006712476480372647    8    2    7    7
 0.0005173124433942374    8    2    8    1
 0.0009452646297206276    8    2    8    2
 -0.0005400768186141083    8    3    1    1
 0.0008549740704530973    8    3    2    1
 -0.0008115694370650085    8    3    2    2
 0.001540988587739694    8    3    3    1
 0.001994351784862906    8    3    3    2
 0.0004248937224114911    8    3    3    3
 0.002106797410927593    8    3    4    1
 -0.00248688563387044    8    3    4    2
 6.45817651270714e-05    8    3    4    3
 0.001605558205310761    8    3    4    4
 -0.0002269251567500077    8    3    5    1
 6.701684589769721e-05    8    3    5    2
 0.002902866223775603    8    3    5    3
 0.0004929353220087835    8    3    5    4
 -0.0001760734176768638    8    3    5    5
 3.549086283644823e-06    8    3    6    1
 -3.313605151610192e-05    8    3    6    2
 -0.0004657523628294374    8    3    6    3
 -0.0001047838006214746    8    3    6    4
 -3.864077444381886e-05    8    3    6    5
 4.049576437171643e-05    8    3    6    6
 -1.39038037928462e-05    8    3    7    1
 1.835578195367505e-06    8    3    7    2
 0.000150917623909916    8    3    7    3
 2.889505560108851e-05    8    3    7    4
 -5.7218698146465e-05    8    3    7    5
 0.0003011072873442798    8    3    7    6
 0.0008048388035479611    8    3    7    7
 3.917818312100258e-05    8    3    8    1
 2.438353113081674e-05    8    3    8    2
 0.0007850994106876186    8    3    8    3
 0.002637037951047299    8    4    1    1
 -0.0002680862325982701    8    4    2    1
 -1.350915070310045e-05    8    4    2    2
 0.001940110495816114    8    4    3    1
 -0.00215844540635513    8    4    3    2
 0.001005242321323411    8    4    3    3
 -0.00255239298858107    8    4    4    1
 -0.002507329381193676    8    4    4    2
 0.001609547575198916    8    4    4    3
 0.0004659532806539947    8    4    4    4
 -0.0003561631987701009    8    4    5    1
 0.000665208486248834    8    4    5    2
 0.000499079298013451    8    4    5    3
 1.836242665411243e-05    8    4    5    4
 0.0002944066497204944    8    4    5    5
 -0.0001339078145898985    8    4    6    1
 0.0001048844964463491    8    4    6    2
 -0.0001013088122228898    8    4    6    3
 7.956768025529557e-05    8    4    6    4
 -2.68358469769055e-05    8    4    6    5
 0.000434279257781317    8    4    6    6
 4.289101986015128e-05    8    4    7    1
 -2.124007376120407e-05    8    4    7    2
 2.357517371178597e-05    8    4    7    3
 -2.493587482910382e-05    8    4    7    4
 -1.082090523483344e-05    8    4    7    5
 -1.645125170518379e-05    8    4    7    6
 0.0002997013733180605    8    4    7    7
 0.0001501082109333287    8    4    8    1
 6.974924662281725e-05    8    4    8    2
 2.508227044449807e-05    8    4    8    3
 0.0007255403481346888    8    4    8    4
 -0.0002707367786378795    8    5    1    1
 0.0004972047341938422    8    5    2    1
 -0.001455472991245472    8    5    2    2
 -0.0001550699154567385    8    5    3    1
 2.816422177208833e-05    8    5    3    2
 0.001852584029201276    8    5    3    3
 -0.0002313667972785648    8    5    4    1
 0.0004464511311781002    8    5    4    2
 0.0003025164550905953    8    5    4    3
 8.794554350648068e-05    8    5    4    4
 -0.001113057869439528    8    5    5    1
 -0.0004483243645500273    8    5    5    2
 -0.0001501657908139645    8    5    5    3
 -0.000126862992270976    8    5    5    4
 -0.001091984356114051    8    5    5    5
 -0.0001023926400591994    8    5    6    1
 -4.697015074877703e-05    8    5    6    2
 -7.350399632863357e-06    8    5    6    3
 -3.923128849837648e-05    8    5    6    4
 0.00442390542057765    8    5    6    5
 -0.0001960137339506258    8    5    6    6
 2.180073048081249e-05    8    5    7    1
 9.582028840434494e-06    8    5    7    2
 -1.174670632197734e-05    8    5    7    3
 7.905481627096006e-06    8    5    7    4
 -0.001099038194343854    8    5    7    5
 -0.0002927348812890269    8    5    7    6
 -0.001401507622902011    8    5    7    7
 -3.314705321592697e-05    8    5    8    1
 -1.813490839139818e-05    8    5    8    2
 -4.370373944532434e-06    8    5    8    3
 -9.522076752135851e-06    8    5    8    4
 0.00166460130431563    8    5    8    5
 0.008034912088558071    8    6    1    1
 -0.0007450421834409324    8    6    2    1
 0.009171579053507845    8    6    2    2
 0.0001845556698460242    8    6    3    1
 -0.0002524542172389742    8    6    3    2
 0.009135672427396751    8    6    3    3
 -0.001144876542287523    8    6    4    1
 0.0009478810481770615    8    6    4    2
 -0.001124784569714654    8    6    4    3
 0.01503134991773089    8    6    4    4
 0.0002918904411356648    8    6    5    1
 0.0001491414475217543    8    6    5    2
 0.0001042599525721501    8    6    5    3
 5.156045352343709e-06    8    6    5    4
 0.01656369315012078    8    6    5    5
 0.0009601328317650204    8    6    6    1
 0.0004075495059640451    8    6    6    2
 -6.6988950762693e-05    8    6    6    3
 7.268950197591821e-05    8    6    6    4
 -0.000133128662629857    8    6    6    5
 0.01476922024340996    8    6    6    6
 -0.0002568773761399165    8    6    7    1
 -0.0001074628844510706    8    6    7    2
 4.590559240820642e-05    8    6    7    3
 -2.870173488453811e-05    8    6    7    4
 -2.963939480262042e-05    8    6    7    5
 -0.003042886087479165    8    6    7    6
 0.001841397867268275    8    6    7    7
 -0.0005692855873319219    8    6    8    1
 -0.0002671412688054209    8    6    8    2
 -7.149202007622479e-05    8    6    8    3
 -0.0001284131972272059    8    6    8    4
 -9.484570816776366e-05    8    6    8    5
 0.006222672003048609    8    6    8    6
 0.003060446901285376    8    7    1    1
 0.0002012986690981115    8    7    2    1
 0.002683484637949543    8    7    2    2
 -0.0001763473636578257    8    7    3    1
 -1.685811953245275e-05    8    7    3    2
 0.002545855281606425    8    7    3    3
 0.0002774774189369061    8    7    4    1
 -0.0001568913459117889    8    7    4    2
 0.0003750056827442732    8    7    4    3
 0.0004866356415007416    8    7    4    4
 -3.495755937950508e-05    8    7    5    1
 -4.650198674429196e-05    8    7    5    2
 -0.0002532333481844231    8    7    5    3
 -4.531512887650731e-05    8    7    5    4
 -0.0005257969486245791    8    7    5    5
 -0.0002965194692908651    8    7    6    1
 -0.0001240400838342973    8    7    6    2
 3.300867516815072e-05    8    7    6    3
 -1.665204426830476e-05    8    7    6    4
 0.0002238948822907644    8    7    6    5
 -0.002286975444640501    8    7    6    6
 9.735581696861464e-05    8    7    7    1
 4.19218267481633e-05    8    7    7    2
 -2.906288392385062e-06    8    7    7    3
 2.187025437173131e-06    8    7    7    4
 -0.0001843493708192307    8    7    7    5
 -0.002940102063821832    8    7    7    6
 -0.01415775549320733    8    7    7    7
 0.0002790285631814483    8    7    8    1
 0.0001122272653980294    8    7    8    2
 -4.292981452666111e-05    8    7    8    3
 3.741398024862883e-05    8    7    8    4
 5.563981828040319e-05    8    7    8    5
 -0.001886883850385853    8    7    8    6
 0.001528242706651018    8    7    8    7
 0.3574306186349221    8    8    1    1
 0.00183829959232347    8    8    2    1
 0.3541795142907863    8    8    2    2
 7.982509159996411e-05    8    8    3    1
 0.0005338379834658648    8    8    3    2
 0.3539039526118362    8    8    3    3
 0.002531290000160294    8    8    4    1
 -0.002628299208384166    8    8    4    2
 0.002727432857027571    8    8    4    3
 0.3401547784825223    8    8    4    4
 -0.0007630202860919172    8    8    5    1
 -0.0006348621819056242    8    8    5    2
 -0.0001158014970736448    8    8    5    3
 -0.000269250706182477    8    8    5    4
 0.3158024316227531    8    8    5    5
 -0.0002160342288765049    8    8    6    1
 -0.0003143083787879863    8    8    6    2
 -0.0006212664546851321    8    8    6    3
 -0.000577798283726505    8    8    6    4
 -0.0002141177540886385    8    8    6    5
 0.2545795063310974    8    8    6    6
 0.001242362167091202    8    8    7    1
 0.000502881576798106    8    8    7    2
 -0.0005048867112268929    8    8    7    3
 0.0001084436964283592    8    8    7    4
 -0.001707454977097844    8    8    7    5
 -0.0145251061657332    8    8    7    6
 0.1934261048340125    8    8    7    7
 0.004676343991240339    8    8    8    1
 0.002079353607892021    8    8    8    2
 0.0001863654587669628    8    8    8    3
 0.000880052335164333    8    8    8    4
 0.0004189012956755112    8    8    8    5
 -0.01347520348408193    8    8    8    6
 0.009472705033374447    8    8    8    7
 0.3839194904222576    8    8    8    8
 -0.0004278959040611486    9    1    1    1
 -8.461150142772969e-06    9    1    2    1
 -0.0003255765254013134    9    1    2    2
 0.0001730516944182991    9    1    3    1
 7.571867792844058e-05    9    1    3    2
 -0.0002577711135540696    9    1    3    3
 -6.211486099705118e-05    9    1    4    1
 -2.017921547933874e-06    9    1    4    2
 -2.884257232777407e-05    9    1    4    3
 -0.0001612358307617234    9    1    4    4
 5.853782179306459e-06    9    1    5    1
 -1.275718908804832e-05    9    1    5    2
 -3.762336838675554e-05    9    1    5    3
 9.994037423802077e-06    9    1    5    4
 -0.0001409245035974127    9    1    5    5
 7.368987638691426e-06    9    1    6    1
 1.984223049319609e-05    9    1    6    2
 -0.0001304829730910697    9    1    6    3
 4.088890345705962e-05    9    1    6    4
 2.268477043457554e-05    9    1    6    5
 -8.106009059279351e-05    9    1    6    6
 -7.735751678169584e-06    9    1    7    1
 -8.158810943036517e-06    9    1    7    2
 8.852380163935729e-05    9    1    7    3
 5.773335198959667e-06    9    1    7    4
 1.563135144138443e-05    9    1    7    5
 -1.712049823915784e-05    9    1    7    6
 3.162599010635448e-05    9    1    7    7
 -1.082206933508565e-05    9    1    8    1
 -4.39056357605087e-05    9    1    8    2
 -4.455061447886528e-05    9    1    8    3
 -4.131486236730352e-05    9    1    8    4