 &FCI NORB=  37,NELEC=59,MS2=1,
  ORBSYM=1,1,1,1,1,1,1,1,1,1,1,1,1,1,1,1,1,1,1,1,1,1,1,1,1,1,1,1,1,1,1,1,1,1,1,1,1,
  ISYM=1,
 &END
 -1.209195563644121    1    1    1    1
 -1.045664468027529    2    2    1    1
 -0.904249248483927    2    2    2    2
 -1.037636151553984    3    3    1    1
 -0.8973066781281719    3    3    2    2
 -0.8904174108669183    3    3    3    3
 -1.037116634471404    4    4    1    1
 -0.8968574203156887    4    4    2    2
 -0.8899716023290418    4    4    3    3
 -0.8895260169957548    4    4    4    4
 -1.036782551107775    5    5    1    1
 -0.8965685182445853    5    5    2    2
 -0.8896849183664498    5    5    3    3
 -0.8892394765682696    5    5    4    4
 -0.8889530284432187    5    5    5    5
 -0.9352081638111566    6    6    1    1
 -0.8087310080426372    6    6    2    2
 -0.8025217997611482    6    6    3    3
 -0.8021199982399749    6    6    4    4
 -0.8018616136589749    6    6    5    5
 -0.7233026120466671    6    6    6    6
 -0.8835074957540683    7    7    1    1
 -0.7640223164248321    7    7    2    2
 -0.7581563688511521    7    7    3    3
 -0.7577767799323436    7    7    4    4
 -0.7575326795032258    7    7    5    5
 -0.6833166178078479    7    7    6    6
 -0.6455411502678645    7    7    7    7
 -0.8822585229844833    8    8    1    1
 -0.7629422542033392    8    8    2    2
 -0.7570845990423694    8    8    3    3
 -0.7567055467304663    8    8    4    4
 -0.7564617913745827    8    8    5    5
 -0.6823506454162742    8    8    6    6
 -0.6446285792685172    8    8    7    7
 -0.6437172983276404    8    8    8    8
 -0.8752641355329297    9    9    1    1
 -0.7568937847467808    9    9    2    2
 -0.7510825680261163    9    9    3    3
 -0.7507065207730083    9    9    4    4
 -0.7504646978659    9    9    5    5
 -0.6769410917905248    9    9    6    6
 -0.639518079422626    9    9    7    7
 -0.6386140229537282    9    9    8    8
 -0.6335512054323696    9    9    9    9
 -0.8750980968144116   10   10    1    1
 -0.7567502010341944   10   10    2    2
 -0.7509400867087247   10   10    3    3
 -0.7505641107922583   10   10    4    4
 -0.7503223337592629   10   10    5    5
 -0.6768126752053705   10   10    6    6
 -0.6393967620304631   10   10    7    7
 -0.6384928770622261   10   10    8    8
 -0.6334310199637836   10   10    9    9
 -0.6333108572945337   10   10   10   10
 -0.8725468218114569   11   11    1    1
 -0.7545439593815068   11   11    2    2
 -0.7487507839563694   11   11    3    3
 -0.7483759041661098   11   11    4    4
 -0.7481348320137476   11   11    5    5
 -0.674839484695392   11   11    6    6
 -0.637532654472834   11   11    7    7
 -0.636631404705306   11   11    8    8
 -0.6315843050260954   11   11    9    9
 -0.6314644926810153   11   11   10   10
 -0.629623510988454   11   11   11   11
 -0.8611796043465298   12   12    1    1
 -0.7447140395895463   12   12    2    2
 -0.7389963355124489   12   12    3    3
 -0.7386263395175255   12   12    4    4
 -0.738388407964054   12   12    5    5
 -0.66604792533755   12   12    6    6
 -0.629227114708974   12   12    7    7
 -0.6283376060902777   12   12    8    8
 -0.6233562581600697   12   12    9    9
 -0.6232380066859338   12   12   10   10
 -0.6214210086223596   12   12   11   11
 -0.6133253654251044   12   12   12   12
 -0.8271170736065108   13   13    1    1
 -0.7152581110724151   13   13    2    2
 -0.7097665612956581   13   13    3    3
 -0.7094111998785709   13   13    4    4
 -0.7091826793130201   13   13    5    5
 -0.63970350447966   13   13    6    6
 -0.6043390799377701   13   13    7    7
 -0.6034847543569848   13   13    8    8
 -0.5987004353811819   13   13    9    9
 -0.598586861147952   13   13   10   10
 -0.5968417314287774   13   13   11   11
 -0.5890662979692759   13   13   12   12
 -0.5657667576861392   13   13   13   13
 -0.8234607348465836   14   14    1    1
 -0.7120962540169645   14   14    2    2
 -0.7066289800857215   14   14    3    3
 -0.7062751895728806   14   14    4    4
 -0.7060476792012043   14   14    5    5
 -0.636875642750133   14   14    6    6
 -0.60166754954307   14   14    7    7
 -0.6008170005784789   14   14    8    8
 -0.5960538310765162   14   14    9    9
 -0.5959407589074853   14   14   10   10
 -0.5942033436771502   14   14   11   11
 -0.5864622821580191   14   14   12   12
 -0.5632657394007999   14   14   13   13
 -0.5607757770716099   14   14   14   14
 -0.8203591621128954   15   15    1    1
 -0.7094141366654529   15   15    2    2
 -0.7039674552737629   15   15    3    3
 -0.7036149973162724   15   15    4    4
 -0.703388343864587   15   15    5    5
 -0.6344768445503961   15   15    6    6
 -0.5994013629631409   15   15    7    7
 -0.5985540175993599   15   15    8    8
 -0.5938087886208833   15   15    9    9
 -0.5936961423392585   15   15   10   10
 -0.5919652711000057   15   15   11   11
 -0.5842533663631247   15   15   12   12
 -0.5611441936060612   15   15   13   13
 -0.5586636097437989   15   15   14   14
 -0.5565593979144298   15   15   15   15
 -0.8163820320896246   16   16    1    1
 -0.7059748720211743   16   16    2    2
 -0.700554596332121   16   16    3    3
 -0.7002038471031844   16   16    4    4
 -0.6999782924753913   16   16    5    5
 -0.6314008785295714   16   16    6    6
 -0.59649544410866   16   16    7    7
 -0.5956522067049553   16   16    8    8
 -0.5909299827631861   16   16    9    9
 -0.5908178825946899   16   16   10   10
 -0.5890954026799814   16   16   11   11
 -0.5814208855280536   16   16   12   12
 -0.5584237468519508   16   16   13   13
 -0.5559551889473537   16   16   14   14
 -0.5538611784108187   16   16   15   15
 -0.551176039970104   16   16   16   16
 -0.816108309473189   17   17    1    1
 -0.7057381675353924   17   17    2    2
 -0.700319709196532   17   17    3    3
 -0.6999690775693955   17   17    4    4
 -0.6997435985672292   17   17    5    5
 -0.6311891777648589   17   17    6    6
 -0.5962954466966207   17   17    7    7
 -0.5954524920198005   17   17    8    8
 -0.5907318513802622   17   17    9    9
 -0.5906197887975411   17   17   10   10
 -0.5888978864086606   17   17   11   11
 -0.5812259424257054   17   17   12   12
 -0.5582365144006476   17   17   13   13
 -0.5557687841724347   17   17   14   14
 -0.5536754757312673   17   17   15   15
 -0.5509912375836636   17   17   16   16
 -0.5508064971591368   17   17   17   17
 -0.8138882055908475   18   18    1    1
 -0.703818309561304   18   18    2    2
 -0.6984145913497708   18   18    3    3
 -0.6980649135649463   18   18    4    4
 -0.69784004794559   18   18    5    5
 -0.6294721194678393   18   18    6    6
 -0.5946733117166592   18   18    7    7
 -0.5938326501753567   18   18    8    8
 -0.5891248513516524   18   18    9    9
 -0.5890130936188784   18   18   10   10
 -0.5872958754148471   18   18   11   11
 -0.5796448018389493   18   18   12   12
 -0.5567179132070319   18   18   13   13
 -0.55425689607976   18   18   14   14
 -0.552169282179554   18   18   15   15
 -0.5494923461111761   18   18   16   16
 -0.5493081082460877   18   18   17   17
 -0.547813795482006   18   18   18   18
 -0.8138454875655843   19   19    1    1
 -0.703781368703675   19   19    2    2
 -0.698377934113614   19   19    3    3
 -0.6980282746821018   19   19    4    4
 -0.6978034208651223   19   19    5    5
 -0.6294390807707341   19   19    6    6
 -0.5946420994821301   19   19    7    7
 -0.5938014820640876   19   19    8    8
 -0.5890939303355835   19   19    9    9
 -0.5889821784685656   19   19   10   10
 -0.5872650503950585   19   19   11   11
 -0.5796143783961243   19   19   12   12
 -0.556688693113022   19   19   13   13
 -0.5542278051555686   19   19   14   14
 -0.5521403008266067   19   19   15   15
 -0.5494635052608456   19   19   16   16
 -0.5492792770657311   19   19   17   17
 -0.5477850427326797   19   19   18   18
 -0.5477562914924805   19   19   19   19
 -0.8135724979917237   20   20    1    1
 -0.703545298124101   20   20    2    2
 -0.6981436760172799   20   20    3    3
 -0.6977941338726246   20   20    4    4
 -0.6975693554787425   20   20    5    5
 -0.6292279469510398   20   20    6    6
 -0.5944426376729571   20   20    7    7
 -0.5936023022246426   20   20    8    8
 -0.5888963295582086   20   20    9    9
 -0.5887846151763092   20   20   10   10
 -0.5870680630819874   20   20   11   11
 -0.5794199573609533   20   20   12   12
 -0.556501962079395   20   20   13   13
 -0.5540418995817679   20   20   14   14
 -0.5519550954679278   20   20   15   15
 -0.5492791977842487   20   20   16   16
 -0.5490950313851105   20   20   17   17
 -0.5476012982656188   20   20   18   18
 -0.5475725566694968   20   20   19   19
 -0.5473888834769968   20   20   20   20
 -0.8101766107917345   21   21    1    1
 -0.7006086692699918   21   21    2    2
 -0.6952295937701627   21   21    3    3
 -0.6948815106297114   21   21    4    4
 -0.6946576704706794   21   21    5    5
 -0.6266015219720722   21   21    6    6
 -0.5919614080967553   21   21    7    7
 -0.5911245802453663   21   21    8    8
 -0.5864382505147259   21   21    9    9
 -0.5863270024335439   21   21   10   10
 -0.5846176153027622   21   21   11   11
 -0.5770014331096082   21   21   12   12
 -0.5541790985430054   21   21   13   13
 -0.5517293044538699   21   21   14   14
 -0.5496512107516975   21   21   15   15
 -0.5469864823820193   21   21   16   16
 -0.5468030847014882   21   21   17   17
 -0.5453155864893874   21   21   18   18
 -0.5452869648619449   21   21   19   19
 -0.5451040583293861   21   21   20   20
 -0.5428287701419015   21   21   21   21
 -0.8098857199864452   22   22    1    1
 -0.7003571184139413   22   22    2    2
 -0.6949799742505431   22   22    3    3
 -0.6946320160880087   22   22    4    4
 -0.6944082562979275   22   22    5    5
 -0.626376543098461   22   22    6    6
 -0.5917488666231954   22   22    7    7
 -0.5909123392316374   22   22    8    8
 -0.5862276921097159   22   22    9    9
 -0.5861164839717309   22   22   10   10
 -0.5844077105898434   22   22   11   11
 -0.5767942629576999   22   22   12   12
 -0.5539801226628054   22   22   13   13
 -0.5515312081628434   22   22   14   14
 -0.5494538605922458   22   22   15   15
 -0.5467900889830701   22   22   16   16
 -0.546606757150773   22   22   17   17
 -0.545119793019201   22   22   18   18
 -0.5450911816682442   22   22   19   19
 -0.5449083408075744   22   22   20   20
 -0.5426338695535884   22   22   21   21
 -0.5424390389435841   22   22   22   22
 -0.807732875705455   23   23    1    1
 -0.6984954238812195   23   23    2    2
 -0.693132573282672   23   23    3    3
 -0.6927855400651287   23   23    4    4
 -0.6925623750749959   23   23    5    5
 -0.6247115042846164   23   23    6    6
 -0.5901758753580654   23   23    7    7
 -0.5893415716298791   23   23    8    8
 -0.5846693772719909   23   23    9    9
 -0.5845584647483104   23   23   10   10
 -0.5828542336406128   23   23   11   11
 -0.575261024131934   23   23   12   12
 -0.5525075285554827   23   23   13   13
 -0.5500651237783688   23   23   14   14
 -0.5479932982286276   23   23   15   15
 -0.5453366074770756   23   23   16   16
 -0.5451537629788269   23   23   17   17
 -0.543670751506436   23   23   18   18
 -0.5436422162103864   23   23   19   19
 -0.5434598613786606   23   23   20   20
 -0.541191436141181   23   23   21   21
 -0.5409971234313622   23   23   22   22
 -0.5395590408297442   23   23   23   23
 -0.8056755169482606   24   24    1    1
 -0.6967163014505184   24   24    2    2
 -0.6913671104515418   24   24    3    3
 -0.6910209611547238   24   24    4    4
 -0.6907983645832606   24   24    5    5
 -0.6231203152631994   24   24    6    6
 -0.5886726512824174   24   24    7    7
 -0.587840472591026   24   24    8    8
 -0.5831801786772903   24   24    9    9
 -0.5830695486564753   24   24   10   10
 -0.5813696583585914   24   24   11   11
 -0.573795789347926   24   24   12   12
 -0.5511002487028498   24   24   13   13
 -0.5486640649215725   24   24   14   14
 -0.5465975164734157   24   24   15   15
 -0.5439475925208231   24   24   16   16
 -0.5437652137418004   24   24   17   17
 -0.5422859796155242   24   24   18   18
 -0.5422575170011036   24   24   19   19
 -0.5420756266413849   24   24   20   20
 -0.5398129792602583   24   24   21   21
 -0.5396191614800965   24   24   22   22
 -0.5381847417872482   24   24   23   23
 -0.5368139431918123   24   24   24   24
 -0.8052963682770576   25   25    1    1
 -0.6963884286849403   25   25    2    2
 -0.6910417550004615   25   25    3    3
 -0.6906957686005455   25   25    4    4
 -0.6904732767824137   25   25    5    5
 -0.6228270765652848   25   25    6    6
 -0.5883956235599509   25   25    7    7
 -0.5875638364895513   25   25    8    8
 -0.5829057356972492   25   25    9    9
 -0.5827951577386162   25   25   10   10
 -0.5810960674044077   25   25   11   11
 -0.5735257626355628   25   25   12   12
 -0.5508409024491785   25   25   13   13
 -0.5484058651292544   25   25   14   14
 -0.5463402891930849   25   25   15   15
 -0.5436916122873795   25   25   16   16
 -0.543509319335306   25   25   17   17
 -0.5420307813325206   25   25   18   18
 -0.5420023321125277   25   25   19   19
 -0.5418205273499095   25   25   20   20
 -0.5395589447643859   25   25   21   21
 -0.5393652181943357   25   25   22   22
 -0.5379314735354299   25   25   23   23
 -0.5365613200340238   25   25   24   24
 -0.536308815759995   25   25   25   25
 -0.8041895919628533   26   26    1    1
 -0.6954313323304597   26   26    2    2
 -0.6900920069614915   26   26    3    3
 -0.689746496075396   26   26    4    4
 -0.6895243100436603   26   26    5    5
 -0.6219710808308667   26   26    6    6
 -0.5875869494305358   26   26    7    7
 -0.5867563055445143   26   26    8    8
 -0.5821046067128186   26   26    9    9
 -0.5819941807293717   26   26   10   10
 -0.5802974255763607   26   26   11   11
 -0.5727375252180402   26   26   12   12
 -0.5500838424551913   26   26   13   13
 -0.5476521517809696   26   26   14   14
 -0.5455894147133351   26   26   15   15
 -0.5429443780734731   26   26   16   16
 -0.5427623356596233   26   26   17   17
 -0.5412858297172141   26   26   18   18
 -0.541257419597016   26   26   19   19
 -0.5410758647016679   26   26   20   20
 -0.5388173903706167   26   26   21   21
 -0.5386239300528279   26   26   22   22
 -0.5371921558916065   26   26   23   23
 -0.5358238854900156   26   26   24   24
 -0.5355717282506447   26   26   25   25
 -0.5348356537733023   26   26   26   26
 -0.8020848590027841   27   27    1    1
 -0.6936112425640054   27   27    2    2
 -0.6882858913302423   27   27    3    3
 -0.6879412847186577   27   27    4    4
 -0.6877196801944035   27   27    5    5
 -0.6203432519617572   27   27    6    6
 -0.5860491110504662   27   27    7    7
 -0.5852206411338451   27   27    8    8
 -0.5805811167743749   27   27    9    9
 -0.5804709797989049   27   27   10   10
 -0.5787786654102751   27   27   11   11
 -0.5712385508980014   27   27   12   12
 -0.5486441575779089   27   27   13   13
 -0.5462188311485888   27   27   14   14
 -0.5441614926968251   27   27   15   15
 -0.5415233786730378   27   27   16   16
 -0.5413418127023955   27   27   17   17
 -0.5398691710859533   27   27   18   18
 -0.5398408353210032   27   27   19   19
 -0.5396597555929241   27   27   20   20
 -0.5374071921632469   27   27   21   21
 -0.5372142381717168   27   27   22   22
 -0.5357862112640021   27   27   23   23
 -0.5344215219132494   27   27   24   24
 -0.5341700246223013   27   27   25   25
 -0.5334358766063669   27   27   26   26
 -0.5320397629500878   27   27   27   27
 -0.8012012061328716   28   28    1    1
 -0.6928470945337617   28   28    2    2
 -0.6875276102127674   28   28    3    3
 -0.6871833832525599   28   28    4    4
 -0.6869620228688997   28   28    5    5
 -0.6196598229096136   28   28    6    6
 -0.5854034636815166   28   28    7    7
 -0.5845759064860512   28   28    8    8
 -0.579941493467319   28   28    9    9
 -0.5798314778292031   28   28   10   10
 -0.578141027854855   28   28   11   11
 -0.570609220248956   28   28   12   12
 -0.5480397190587636   28   28   13   13
 -0.5456170645994174   28   28   14   14
 -0.5435619927071166   28   28   15   15
 -0.5409267850803298   28   28   16   16
 -0.5407454191400074   28   28   17   17
 -0.5392743999254548   28   28   18   18
 -0.5392460953778748   28   28   19   19
 -0.5390652151444248   28   28   20   20
 -0.5368151333525905   28   28   21   21
 -0.5366223919375058   28   28   22   22
 -0.5351959382798795   28   28   23   23
 -0.5338327524005462   28   28   24   24
 -0.5335815321829033   28   28   25   25
 -0.5328481929741592   28   28   26   26
 -0.5314536174092994   28   28   27   27
 -0.5308681176221159   28   28   28   28
 -0.7993855741726436   29   29    1    1
 -0.6912770078704398   29   29    2    2
 -0.6859695782314297   29   29    3    3
 -0.6856261313367858   29   29    4    4
 -0.6854052725861539   29   29    5    5
 -0.618255588654433   29   29    6    6
 -0.5840768590406943   29   29    7    7
 -0.5832511772034803   29   29    8    8
 -0.5786272664010821   29   29    9    9
 -0.5785175000735102   29   29   10   10
 -0.5768308808909496   29   29   11   11
 -0.5693161413954114   29   29   12   12
 -0.5467977857943341   29   29   13   13
 -0.5443806214026904   29   29   14   14
 -0.5423302065855159   29   29   15   15
 -0.5397009707010985   29   29   16   16
 -0.5395200157609034   29   29   17   17
 -0.5380523300779027   29   29   18   18
 -0.5380240896723145   29   29   19   19
 -0.5378436193383134   29   29   20   20
 -0.535598636540818   29   29   21   21
 -0.5354063319042487   29   29   22   22
 -0.5339831107865022   29   29   23   23
 -0.5326230140735745   29   29   24   24
 -0.5323723631554443   29   29   25   25
 -0.5316406857940549   29   29   26   26
 -0.530249270528939   29   29   27   27
 -0.5296650975646787   29   29   28   28
 -0.5284648037158997   29   29   29   29
 -0.7990576199794822   30   30    1    1
 -0.6909934060633872   30   30    2    2
 -0.685688153838958   30   30    3    3
 -0.6853448478460928   30   30    4    4
 -0.6851240797044933   30   30    5    5
 -0.6180019444565695   30   30    6    6
 -0.583837236934367   30   30    7    7
 -0.5830118938395941   30   30    8    8
 -0.5783898800328202   30   30    9    9
 -0.578280158737744   30   30   10   10
 -0.5765942315039139   30   30   11   11
 -0.5690825749891146   30   30   12   12
 -0.5465734577198024   30   30   13   13
 -0.5441572849887834   30   30   14   14
 -0.5421077113703479   30   30   15   15
 -0.5394795541505459   30   30   16   16
 -0.5392986734485326   30   30   17   17
 -0.5378315898950792   30   30   18   18
 -0.5378033610753387   30   30   19   19
 -0.5376229647807056   30   30   20   20
 -0.5353789030049871   30   30   21   21
 -0.5351866772629013   30   30   22   22
 -0.533764040032766   30   30   23   23
 -0.5324045013101681   30   30   24   24
 -0.5321539532235403   30   30   25   25
 -0.5314225760385195   30   30   26   26
 -0.5300317316124147   30   30   27   27
 -0.5294477983096886   30   30   28   28
 -0.5282479968908624   30   30   29   29
 -0.5280312790125236   30   30   30   30
 -0.786333653338002   31   31    1    1
 -0.6799902232785723   31   31    2    2
 -0.6747694503840943   31   31    3    3
 -0.6744316110983749   31   31    4    4
 -0.6742143584059732   31   31    5    5
 -0.6081610569798475   31   31    6    6
 -0.574540378558875   31   31    7    7
 -0.5737281779931802   31   31    8    8
 -0.569179763821806   31   31    9    9
 -0.5690717896974764   31   31   10   10
 -0.5674127086901847   31   31   11   11
 -0.5600206656607296   31   31   12   12
 -0.5378699771831623   31   31   13   13
 -0.5354922789006196   31   31   14   14
 -0.5334753421104906   31   31   15   15
 -0.5308890349199697   31   31   16   16
 -0.5307110345108925   31   31   17   17
 -0.5292673123793538   31   31   18   18
 -0.529239533067323   31   31   19   19
 -0.5290620093520606   31   31   20   20
 -0.5268536813788386   31   31   21   21
 -0.5266645165848857   31   31   22   22
 -0.5252645330260334   31   31   23   23
 -0.5239266432120019   31   31   24   24
 -0.5236800847819603   31   31   25   25
 -0.522960353839553   31   31   26   26
 -0.5215916568251476   31   31   27   27
 -0.5210170219105213   31   31   28   28
 -0.5198363257887951   31   31   29   29
 -0.519623058864412   31   31   30   30
 -0.5113487288263547   31   31   31   31
 -0.7823241521309315   32   32    1    1
 -0.6765229653156736   32   32    2    2
 -0.6713288130486269   32   32    3    3
 -0.6709926963993713   32   32    4    4
 -0.6707765514745549   32   32    5    5
 -0.6050600546487089   32   32    6    6
 -0.5716108074645138   32   32    7    7
 -0.5708027482949487   32   32    8    8
 -0.5662775264059255   32   32    9    9
 -0.5661701028397209   32   32   10   10
 -0.5645194814567542   32   32   11   11
 -0.557165130322239   32   32   12   12
 -0.5351273878082728   32   32   13   13
 -0.5327618133666639   32   32   14   14
 -0.5307551609010838   32   32   15   15
 -0.52818204124458   32   32   16   16
 -0.528004948456399   32   32   17   17
 -0.5265685878381371   32   32   18   18
 -0.5265409501723205   32   32   19   19
 -0.526364331647301   32   32   20   20
 -0.5241672638988407   32   32   21   21
 -0.5239790636527821   32   32   22   22
 -0.5225862185850084   32   32   23   23
 -0.5212551506471633   32   32   24   24
 -0.5210098494141381   32   32   25   25
 -0.5202937883669085   32   32   26   26
 -0.518932070314052   32   32   27   27
 -0.5183603654525579   32   32   28   28
 -0.5171856896791979   32   32   29   29
 -0.5169735101990405   32   32   30   30
 -0.5087413708215692   32   32   31   31
 -0.5061473076885254   32   32   32   32
 -0.7807519703741517   33   33    1    1
 -0.6751634047534504   33   33    2    2
 -0.6699796908084393   33   33    3    3
 -0.6696442496291442   33   33    4    4
 -0.6694285390755622   33   33    5    5
 -0.6038441080655901   33   33    6    6
 -0.5704620814779442   33   33    7    7
 -0.569655646207988   33   33    8    8
 -0.5651395183387263   33   33    9    9
 -0.5650323106540979   33   33   10   10
 -0.5633850064086867   33   33   11   11
 -0.5560454347957485   33   33   12   12
 -0.5340519799810011   33   33   13   13
 -0.5316911594677621   33   33   14   14
 -0.5296885396303324   33   33   15   15
 -0.5271205909912016   33   33   16   16
 -0.5269438540939259   33   33   17   17
 -0.5255103800284492   33   33   18   18
 -0.5254827979041032   33   33   19   19
 -0.5253065343168959   33   33   20   20
 -0.5231138818607708   33   33   21   21
 -0.5229260598274936   33   33   22   22
 -0.5215360138623675   33   33   23   23
 -0.5202076208780224   33   33   24   24
 -0.5199628126096111   33   33   25   25
 -0.5192481905798426   33   33   26   26
 -0.5178892090758639   33   33   27   27
 -0.5173186531293702   33   33   28   28
 -0.5161463380191905   33   33   29   29
 -0.5159345849411925   33   33   30   30
 -0.5077189891145156   33   33   31   31
 -0.5051301390874748   33   33   32   32
 -0.5041150146185321   33   33   33   33
 -0.7796588274666608   34   34    1    1
 -0.6742180980295365   34   34    2    2
 -0.6690416418825823   34   34    3    3
 -0.6687066703596696   34   34    4    4
 -0.6684912618257695   34   34    5    5
 -0.6029986565918708   34   34    6    6
 -0.5696633686958793   34   34    7    7
 -0.5688580625284156   34   34    8    8
 -0.5643482577596224   34   34    9    9
 -0.5642412001781311   34   34   10   10
 -0.5625962023488683   34   34   11   11
 -0.5552669069836466   34   34   12   12
 -0.5333042455450983   34   34   13   13
 -0.5309467304531683   34   34   14   14
 -0.528946914514742   34   34   15   15
 -0.5263825613002123   34   34   16   16
 -0.5262060718549997   34   34   17   17
 -0.5247746048187296   34   34   18   18
 -0.5247470613125426   34   34   19   19
 -0.5245710445147095   34   34   20   20
 -0.522381462025196   34   34   21   21
 -0.5221939029644521   34   34   22   22
 -0.5208058032241779   34   34   23   23
 -0.5194792701433928   34   34   24   24
 -0.5192348046348237   34   34   25   25
 -0.5185211831584103   34   34   26   26
 -0.5171641043854511   34   34   27   27
 -0.5165943472831612   34   34   28   28
 -0.5154236735494964   34   34   29   29
 -0.5152122169502574   34   34   30   30
 -0.5070081239063459   34   34   31   31
 -0.5044228985682626   34   34   32   32
 -0.503409195390787   34   34   33   33
 -0.5027043643914577   34   34   34   34
 -0.7780950876284369   35   35    1    1
 -0.6728658377043811   35   35    2    2
 -0.667699763830304   35   35    3    3
 -0.6673654641503778   35   35    4    4
 -0.6671504876553312   35   35    5    5
 -0.6017892391024645   35   35    6    6
 -0.5685208108582402   35   35    7    7
 -0.567717119870765   35   35    8    8
 -0.5632163602908816   35   35    9    9
 -0.5631095174317781   35   35   10   10
 -0.5614678189285138   35   35   11   11
 -0.554153223725395   35   35   12   12
 -0.5322346121807682   35   35   13   13
 -0.5298818254907219   35   35   14   14
 -0.5278860205270218   35   35   15   15
 -0.5253268105637959   35   35   16   16
 -0.5251506750985124   35   35   17   17
 -0.5237220791155196   35   35   18   18
 -0.5236945908525703   35   35   19   19
 -0.5235189270866908   35   35   20   20
 -0.5213337361813513   35   35   21   21
 -0.521146553302554   35   35   22   22
 -0.5197612376349879   35   35   23   23
 -0.5184373651443893   35   35   24   24
 -0.5181933899534328   35   35   25   25
 -0.5174811997675951   35   35   26   26
 -0.5161268428494602   35   35   27   27
 -0.5155582284930068   35   35   28   28
 -0.5143899027468083   35   35   29   29
 -0.5141788702601383   35   35   30   30
 -0.5059912319354928   35   35   31   31
 -0.5034111917113461   35   35   32   32
 -0.5023995216898958   35   35   33   33
 -0.5016961043503289   35   35   34   34
 -0.5006898665480796   35   35   35   35
 -0.7774489088696774   36   36    1    1
 -0.6723070478871306   36   36    2    2
 -0.6671452642434593   36   36    3    3
 -0.6668112421868668   36   36    4    4
 -0.6665964442217287   36   36    5    5
 -0.6012894757319704   36   36    6    6
 -0.5680486756684281   36   36    7    7
 -0.5672456521161456   36   36    8    8
 -0.5627486302481242   36   36    9    9
 -0.562641876118004   36   36   10   10
 -0.5610015409837135   36   36   11   11
 -0.5536930202773038   36   36   12   12
 -0.5317926113166886   36   36   13   13
 -0.5294417785276594   36   36   14   14
 -0.5274476310050544   36   36   15   15
 -0.5248905463696243   36   36   16   16
 -0.5247145571782321   36   36   17   17
 -0.5232871475905704   36   36   18   18
 -0.5232596821555914   36   36   19   19
 -0.5230841642718745   36   36   20   20
 -0.5209007880855449   36   36   21   21
 -0.520713760655101   36   36   22   22
 -0.519329595440189   36   36   23   23
 -0.5180068223759925   36   36   24   24
 -0.5177630497972726   36   36   25   25
 -0.517051451058647   36   36   26   26
 -0.5156982188830869   36   36   27   27
 -0.5151300767395094   36   36   28   28
 -0.5139627212439813   36   36   29   29
 -0.513751864011869   36   36   30   30
 -0.505571025213469   36   36   31   31
 -0.5029931276158676   36   36   32   32
 -0.5019822977483895   36   36   33   33
 -0.5012794645705153   36   36   34   34
 -0.5002740624109842   36   36   35   35
 -0.4998586035836144   36   36   36   36
 -0.766220982077335   37   37    1    1
 -0.6625975811562204   37   37    2    2
 -0.6575103440560041   37   37    3    3
 -0.6571811459500991   37   37    4    4
 -0.6569694500998398   37   37    5    5
 -0.5926056456596638   37   37    6    6
 -0.559844909643256   37   37    7    7
 -0.5590534833670835   37   37    8    8
 -0.5546214075447014   37   37    9    9
 -0.5545161951590535   37   37   10   10
 -0.5528995497651339   37   37   11   11
 -0.5456965788054865   37   37   12   12
 -0.5241124558229296   37   37   13   13
 -0.5217955737902203   37   37   14   14
 -0.5198302257708901   37   37   15   15
 -0.5173100705835059   37   37   16   16
 -0.5171366230302004   37   37   17   17
 -0.5157298281095219   37   37   18   18
 -0.5157027593306959   37   37   19   19
 -0.5155297762784344   37   37   20   20
 -0.5133779324380898   37   37   21   21
 -0.513193606060118   37   37   22   22
 -0.5118294309764213   37   37   23   23
 -0.5105257614172375   37   37   24   24
 -0.5102855094051255   37   37   25   25
 -0.5095841875843161   37   37   26   26
 -0.508250498804633   37   37   27   27
 -0.5076905617769455   37   37   28   28
 -0.5065400652439742   37   37   29   29
 -0.5063322532146254   37   37   30   30
 -0.4982695621917003   37   37   31   31
 -0.4957288946232027   37   37   32   32
 -0.4947326631732183   37   37   33   33
 -0.4940399803208232   37   37   34   34
 -0.4930490981917601   37   37   35   35
 -0.4926396394259323   37   37   36   36
 -0.485524931638224   37   37   37   37
 -0.6045977818220606    1    1  0  0
 -0.4521246242419635    2    2  0  0
 -0.4452087054334591    3    3  0  0
 -0.4447630084978774    4    4  0  0
 -0.4444765142216093    5    5  0  0
 -0.3616513060233336    6    6  0  0
 -0.3227705751339323    7    7  0  0
 -0.3218586491638202    8    8  0  0
 -0.3167756027161848    9    9  0  0
 -0.3166554286472669   10   10  0  0
 -0.314811755494227   11   11  0  0
 -0.3066626827125522   12   12  0  0
 -0.2828833788430696   13   13  0  0
 -0.2803878885358049   14   14  0  0
 -0.2782796989572149   15   15  0  0
 -0.275588019985052   16   16  0  0
 -0.2754032485795684   17   17  0  0
 -0.273906897741003   18   18  0  0
 -0.2738781457462403   19   19  0  0
 -0.2736944417384984   20   20  0  0
 -0.2714143850709507   21   21  0  0
 -0.2712195194717921   22   22  0  0
 -0.2697795204148721   23   23  0  0
 -0.2684069715959062   24   24  0  0
 -0.2681544078799975   25   25  0  0
 -0.2674178268866512   26   26  0  0
 -0.2660198814750439   27   27  0  0
 -0.265434058811058   28   28  0  0
 -0.2642324018579498   29   29  0  0
 -0.2640156395062618   30   30  0  0
 -0.2556743644131774   31   31  0  0