 &FCI NORB=  36,NELEC=54,MS2=0,
  ORBSYM=1,1,1,1,1,1,1,1,1,1,1,1,1,1,1,1,1,1,1,1,1,1,1,1,1,1,1,1,1,1,1,1,1,1,1,1,
  ISYM=1,
 &END
 -1.209522543668181    1    1    1    1
 -1.192263526837194    2    2    1    1
 -1.175250783764005    2    2    2    2
 -1.164400957048    3    3    1    1
 -1.147785792807438    3    3    2    2
 -1.120962644203723    3    3    3    3
 -1.139488013482463    4    4    1    1
 -1.123228339029634    4    4    2    2
 -1.096979085168422    4    4    3    3
 -1.073508666429967    4    4    4    4
 -1.083974583596027    5    5    1    1
 -1.068507045863404    5    5    2    2
 -1.043536599761952    5    5    3    3
 -1.021209609852608    5    5    4    4
 -0.9714584519596428    5    5    5    5
 -1.083593837670581    6    6    1    1
 -1.068131732908488    6    6    2    2
 -1.043170057672842    6    6    3    3
 -1.020850910115675    6    6    4    4
 -0.9711172273101709    6    6    5    5
 -0.9707761225158108    6    6    6    6
 -1.083293660731071    7    7    1    1
 -1.067835839278023    7    7    2    2
 -1.042881078920459    7    7    3    3
 -1.020568114208905    7    7    4    4
 -0.9708482086178666    7    7    5    5
 -0.9705071983162856    7    7    6    6
 -0.9702383486140862    7    7    7    7
 -1.082168042751932    8    8    1    1
 -1.066726283057921    8    8    2    2
 -1.04179745244401    8    8    3    3
 -1.019507672465422    8    8    4    4
 -0.9698394293382961    8    8    5    5
 -0.9694987733703004    8    8    6    6
 -0.9692302030217699    8    8    7    7
 -0.9682231049633265    8    8    8    8
 -1.081879224902718    9    9    1    1
 -1.066441586431703    9    9    2    2
 -1.04151940902779    9    9    3    3
 -1.019235577927804    9    9    4    4
 -0.9695805906672227    9    9    5    5
 -0.969240025616275    9    9    6    6
 -0.9689715269459934    9    9    7    7
 -0.9679646976701086    9    9    8    8
 -0.9677063593427404    9    9    9    9
 -1.081631955905415   10   10    1    1
 -1.06619784578516   10   10    2    2
 -1.041281364471601   10   10    3    3
 -1.019002626454507   10   10    4    4
 -0.9693589880937187   10   10    5    5
 -0.9690185008806448   10   10    6    6
 -0.9687500635770996   10   10    7    7
 -0.9677434644171646   10   10    8    8
 -0.9674851851343345   10   10    9    9
 -0.9672640614764184   10   10   10   10
 -0.9462579829370643   11   11    1    1
 -0.9327555620525079   11   11    2    2
 -0.9109575565286034   11   11    3    3
 -0.8914671618677029   11   11    4    4
 -0.8480367798006215   11   11    5    5
 -0.8477389069967532   11   11    6    6
 -0.8475040665410778   11   11    7    7
 -0.8466234504632099   11   11    8    8
 -0.8463974966793273   11   11    9    9
 -0.8462040482282372   11   11   10   10
 -0.7402955612192091   11   11   11   11
 -0.9373317413103409   12   12    1    1
 -0.9239566914742032   12   12    2    2
 -0.9023643109149443   12   12    3    3
 -0.8830577730618917   12   12    4    4
 -0.8400370785126564   12   12    5    5
 -0.8397420156027805   12   12    6    6
 -0.8395093904442956   12   12    7    7
 -0.8386370813947783   12   12    8    8
 -0.8384132590783261   12   12    9    9
 -0.838221635465333   12   12   10   10
 -0.7333122044879686   12   12   11   11
 -0.7263947231635124   12   12   12   12
 -0.9351179983968987   13   13    1    1
 -0.9217745370800511   13   13    2    2
 -0.9002331523180547   13   13    3    3
 -0.8809722116740495   13   13    4    4
 -0.8380531212351761   13   13    5    5
 -0.8377587551900247   13   13    6    6
 -0.8375266794339268   13   13    7    7
 -0.8366564305600033   13   13    8    8
 -0.836433136855829   13   13    9    9
 -0.8362419658098372   13   13   10   10
 -0.7315803046445296   13   13   11   11
 -0.7246791606791811   13   13   12   12
 -0.7229676499239494   13   13   13   13
 -0.9251684497037778   14   14    1    1
 -0.911966961291242   14   14    2    2
 -0.8906547744026413   14   14    3    3
 -0.8715987679670905   14   14    4    4
 -0.8291363317482386   14   14    5    5
 -0.8288450977241849   14   14    6    6
 -0.828615491227624   14   14    7    7
 -0.8277545017023186   14   14    8    8
 -0.8275335838176521   14   14    9    9
 -0.8273444468097538   14   14   10   10
 -0.7237963737647182   14   14   11   11
 -0.7169686571829075   14   14   12   12
 -0.7152753567066215   14   14   13   13
 -0.707664908610507   14   14   14   14
 -0.8968673725382503   15   15    1    1
 -0.884069720143234   15   15    2    2
 -0.8634094770664804   15   15    3    3
 -0.844936397457684   15   15    4    4
 -0.8037728951621094   15   15    5    5
 -0.8034905700417161   15   15    6    6
 -0.8032679872511397   15   15    7    7
 -0.8024333355576121   15   15    8    8
 -0.8022191755926553   15   15    9    9
 -0.8020358243214595   15   15   10   10
 -0.701655306337913   15   15   11   11
 -0.6950364508925884   15   15   12   12
 -0.6933949487968666   15   15   13   13
 -0.6860173057417166   15   15   14   14
 -0.6650319071227949   15   15   15   15
 -0.895455606238303   16   16    1    1
 -0.8826780987330698   16   16    2    2
 -0.8620503771146919   16   16    3    3
 -0.8436063761322862   16   16    4    4
 -0.8025076696438822   16   16    5    5
 -0.8022257889337804   16   16    6    6
 -0.8020035565126035   16   16    7    7
 -0.8011702186511643   16   16    8    8
 -0.8009563957971679   16   16    9    9
 -0.8007733331407145   16   16   10   10
 -0.7005508249552717   16   16   11   11
 -0.6939423883046852   16   16   12   12
 -0.6923034701108993   16   16   13   13
 -0.6849374402642986   16   16   14   14
 -0.663985074933763   16   16   15   15
 -0.6629398905718809   16   16   16   16
 -0.8662978140523255   17   17    1    1
 -0.8539363672718192   17   17    2    2
 -0.833980324758501   17   17    3    3
 -0.8161368966509273   17   17    4    4
 -0.7763764447164653   17   17    5    5
 -0.7761037425955746   17   17    6    6
 -0.7758887464982406   17   17    7    7
 -0.7750825437532887   17   17    8    8
 -0.7748756833911211   17   17    9    9
 -0.7746985816140869   17   17   10   10
 -0.6777395150171159   17   17   11   11
 -0.671346262035256   17   17   12   12
 -0.6697607102348136   17   17   13   13
 -0.6626345327784449   17   17   14   14
 -0.6423644175894646   17   17   15   15
 -0.6413532664819475   17   17   16   16
 -0.6204695452437313   17   17   17   17
 -0.8525683656265225   18   18    1    1
 -0.8404028282010767   18   18    2    2
 -0.8207630573578761   18   18    3    3
 -0.803202419327766   18   18    4    4
 -0.7640721075891652   18   18    5    5
 -0.7638037273650213   18   18    6    6
 -0.7635921386153479   18   18    7    7
 -0.7627987129071472   18   18    8    8
 -0.7625951309541221   18   18    9    9
 -0.7624208359597836   18   18   10   10
 -0.666998417017538   18   18   11   11
 -0.6607064869706593   18   18   12   12
 -0.6591460636552684   18   18   13   13
 -0.6521328248260938   18   18   14   14
 -0.632183958861754   18   18   15   15
 -0.6311888328979649   18   18   16   16
 -0.6106360855685223   18   18   17   17
 -0.6009584706562436   18   18   18   18
 -0.8521272518326339   19   19    1    1
 -0.8399680087837857   19   19    2    2
 -0.8203383994410315   19   19    3    3
 -0.8027868471804348   19   19    4    4
 -0.7636767812320403   19   19    5    5
 -0.7634085398662257   19   19    6    6
 -0.7631970605913109   19   19    7    7
 -0.7624040453968455   19   19    8    8
 -0.7622005687759101   19   19    9    9
 -0.7620263639607636   19   19   10   10
 -0.6666533160096768   19   19   11   11
 -0.6603646413699251   19   19   12   12
 -0.6588050254082628   19   19   13   13
 -0.6517954151870826   19   19   14   14
 -0.6318568706471637   19   19   15   15
 -0.6308622595556205   19   19   16   16
 -0.6103201460952199   19   19   17   17
 -0.6006475383232502   19   19   18   18
 -0.6003367668647938   19   19   19   19
 -0.8494577193715493   20   20    1    1
 -0.8373365686310403   20   20    2    2
 -0.8177684546567608   20   20    3    3
 -0.8002718876561725   20   20    4    4
 -0.7612843451810971   20   20    5    5
 -0.7610169441581209   20   20    6    6
 -0.7608061274025517   20   20    7    7
 -0.7600155965551122   20   20    8    8
 -0.7598127573829188   20   20    9    9
 -0.7596390983142061   20   20   10   10
 -0.6645648337277758   20   20   11   11
 -0.6582958601609001   20   20   12   12
 -0.6567411301425373   20   20   13   13
 -0.649753479531245   20   20   14   14
 -0.6298773981877108   20   20   15   15
 -0.6288859030000299   20   20   16   16
 -0.6084081435883747   20   20   17   17
 -0.598765838028164   20   20   18   18
 -0.5984560401502315   20   20   19   19
 -0.5965812053502914   20   20   20   20
 -0.8486403883374475   21   21    1    1
 -0.8365309003229853   21   21    2    2
 -0.8169816143921332   21   21    3    3
 -0.7995018822343788   21   21    4    4
 -0.7605518527840032   21   21    5    5
 -0.7602847090488821   21   21    6    6
 -0.7600740951369306   21   21    7    7
 -0.7592843249222809   21   21    8    8
 -0.7590816809178359   21   21    9    9
 -0.7589081889403663   21   21   10   10
 -0.6639254028880863   21   21   11   11
 -0.6576624612007632   21   21   12   12
 -0.6561092271121738   21   21   13   13
 -0.6491282998769482   21   21   14   14
 -0.6292713428968142   21   21   15   15
 -0.6282808017057461   21   21   16   16
 -0.6078227455799572   21   21   17   17
 -0.5981897176511045   21   21   18   18
 -0.5978802178544234   21   21   19   19
 -0.5960071869826021   21   21   20   20
 -0.5954337209237747   21   21   21   21
 -0.848387088669421   22   22    1    1
 -0.8362812150590528   22   22    2    2
 -0.8167377641411279   22   22    3    3
 -0.7992632492820239   22   22    4    4
 -0.7603248455210038   22   22    5    5
 -0.7600577815221531   22   22    6    6
 -0.7598472304736179   22   22    7    7
 -0.7590576959872413   22   22    8    8
 -0.7588551124673781   22   22    9    9
 -0.7586816722732797   22   22   10   10
 -0.6637272364014836   22   22   11   11
 -0.6574661640584342   22   22   12   12
 -0.6559133935745521   22   22   13   13
 -0.6489345499857986   22   22   14   14
 -0.6290835198513348   22   22   15   15
 -0.6280932743140657   22   22   16   16
 -0.6076413244482384   22   22   17   17
 -0.598011171757013   22   22   18   18
 -0.5977017643389138   22   22   19   19
 -0.5958292925237961   22   22   20   20
 -0.5952559976314183   22   22   21   21
 -0.5950783273853837   22   22   22   22
 -0.846346862164974   23   23    1    1
 -0.8342701011195297   23   23    2    2
 -0.8147736488736538   23   23    3    3
 -0.7973411572476283   23   23    4    4
 -0.7584963937181194   23   23    5    5
 -0.7582299719627164   23   23    6    6
 -0.7580199272536051   23   23    7    7
 -0.7572322914632444   23   23    8    8
 -0.7570301951222553   23   23    9    9
 -0.7568571720222943   23   23   10   10
 -0.6621310854021167   23   23   11   11
 -0.6558850698720612   23   23   12   12
 -0.654336033536823   23   23   13   13
 -0.6473739728787037   23   23   14   14
 -0.6275706810919374   23   23   15   15
 -0.6265828169265891   23   23   16   16
 -0.6061800505181024   23   23   17   17
 -0.596573056704499   23   23   18   18
 -0.5962643933585616   23   23   19   19
 -0.5943964245193579   23   23   20   20
 -0.5938245083035889   23   23   21   21
 -0.5936472653242463   23   23   22   22
 -0.5922196447237176   23   23   23   23
 -0.8452775939514071   24   24    1    1
 -0.8332160905943716   24   24    2    2
 -0.8137442700185542   24   24    3    3
 -0.796333802470377   24   24    4    4
 -0.7575381151208156   24   24    5    5
 -0.7572720299606399   24   24    6    6
 -0.7570622506204228   24   24    7    7
 -0.7562756099231525   24   24    8    8
 -0.7560737689091495   24   24    9    9
 -0.755900964405262   24   24   10   10
 -0.6612945540052567   24   24   11   11
 -0.6550564296439008   24   24   12   12
 -0.6535093503494327   24   24   13   13
 -0.6465560855060029   24   24   14   14
 -0.6267778130480461   24   24   15   15
 -0.6257911969428003   24   24   16   16
 -0.6054142072348186   24   24   17   17
 -0.5958193508244147   24   24   18   18
 -0.5955110774414102   24   24   19   19
 -0.5936454685798859   24   24   20   20
 -0.5930742749187309   24   24   21   21
 -0.5928972558668255   24   24   22   22
 -0.5914714389113477   24   24   23   23
 -0.5907241783765325   24   24   24   24
 -0.8418190150068119   25   25    1    1
 -0.829806863083967   25   25    2    2
 -0.8104147143569462   25   25    3    3
 -0.793075484325188   25   25    4    4
 -0.7544385352982422   25   25    5    5
 -0.7541735388650587   25   25    6    6
 -0.7539646178682002   25   25    7    7
 -0.7531811958282941   25   25    8    8
 -0.7529801806768079   25   25    9    9
 -0.7528080832282393   25   25   10   10
 -0.6585887690216911   25   25   11   11
 -0.6523761688735928   25   25   12   12
 -0.6508354196840652   25   25   13   13
 -0.6439106051574968   25   25   14   14
 -0.6242132584417731   25   25   15   15
 -0.6232306792230039   25   25   16   16
 -0.6029370649978962   25   25   17   17
 -0.5933814673689801   25   25   18   18
 -0.5930744553323537   25   25   19   19
 -0.5912164798868497   25   25   20   20
 -0.5906476233494796   25   25   21   21
 -0.590471328597343   25   25   22   22
 -0.5890513455839173   25   25   23   23
 -0.5883071425766768   25   25   24   24
 -0.5858999964381413   25   25   25   25
 -0.8414836018192272   26   26    1    1
 -0.829476236001346   26   26    2    2
 -0.8100918138548642   26   26    3    3
 -0.7927594924415994   26   26    4    4
 -0.7541379378664308   26   26    5    5
 -0.7538730470180545   26   26    6    6
 -0.753664209263385   26   26    7    7
 -0.7528810993690576   26   26    8    8
 -0.7526801643097664   26   26    9    9
 -0.7525081354314638   26   26   10   10
 -0.6583263618363139   26   26   11   11
 -0.6521162370279047   26   26   12   12
 -0.6505761017323231   26   26   13   13
 -0.6436540463191416   26   26   14   14
 -0.6239645477866155   26   26   15   15
 -0.6229823600653319   26   26   16   16
 -0.6026968315994119   26   26   17   17
 -0.593145041289412   26   26   18   18
 -0.5928381515782308   26   26   19   19
 -0.5909809164218573   26   26   20   20
 -0.5904122865388882   26   26   21   21
 -0.5902360620293854   26   26   22   22
 -0.5888166447919997   26   26   23   23
 -0.5880727383039617   26   26   24   24
 -0.5856665512653573   26   26   25   25
 -0.5854331991061404   26   26   26   26
 -0.8362418948838954   27   27    1    1
 -0.8243093244542388   27   27    2    2
 -0.8050456503054398   27   27    3    3
 -0.7878212940969169   27   27    4    4
 -0.7494403180309815   27   27    5    5
 -0.7491770772209352   27   27    6    6
 -0.7489695403428421   27   27    7    7
 -0.748191308538302   27   27    8    8
 -0.7479916251287062   27   27    9    9
 -0.7478206678398707   27   27   10   10
 -0.6542255643292813   27   27   11   11
 -0.648054123167478   27   27   12   12
 -0.6465235815678909   27   27   13   13
 -0.6396446445063773   27   27   14   14
 -0.6200777943306202   27   27   15   15
 -0.619101724779886   27   27   16   16
 -0.5989425574159729   27   27   17   17
 -0.589450266406262   27   27   18   18
 -0.5891452883495967   27   27   19   19
 -0.5872996221440365   27   27   20   20
 -0.5867345343279535   27   27   21   21
 -0.5865594075430309   27   27   22   22
 -0.585148832033709   27   27   23   23
 -0.5844095594325217   27   27   24   24
 -0.5820183608348812   27   27   25   25
 -0.5817864622555425   27   27   26   26
 -0.5781624413863371   27   27   27   27
 -0.8261550533355755   28   28    1    1
 -0.8143664148805358   28   28    2    2
 -0.7953351012843068   28   28    3    3
 -0.7783185071514586   28   28    4    4
 -0.7404004866327344   28   28    5    5
 -0.7401404210622404   28   28    6    6
 -0.7399353875167567   28   28    7    7
 -0.7391665428296862   28   28    8    8
 -0.7389692680233004   28   28    9    9
 -0.7388003728400525   28   28   10   10
 -0.6463342237439522   28   28   11   11
 -0.6402372231830143   28   28   12   12
 -0.6387251431442418   28   28   13   13
 -0.6319291805768129   28   28   14   14
 -0.6125983478961491   28   28   15   15
 -0.6116340518034999   28   28   16   16
 -0.5917180465296351   28   28   17   17
 -0.5823402525762559   28   28   18   18
 -0.582038953198394   28   28   19   19
 -0.5802155496212439   28   28   20   20
 -0.5796572779564402   28   28   21   21
 -0.5794842635700248   28   28   22   22
 -0.5780907025773654   28   28   23   23
 -0.5773603471634595   28   28   24   24
 -0.574997991465837   28   28   25   25
 -0.5747688900726228   28   28   26   26
 -0.5711885825410283   28   28   27   27
 -0.5642988431467818   28   28   28   28
 -0.8235079811436262   29   29    1    1
 -0.8117571145050384   29   29    2    2
 -0.792786778882367   29   29    3    3
 -0.7758247073877922   29   29    4    4
 -0.7380281794839031   29   29    5    5
 -0.7377689471859733   29   29    6    6
 -0.7375645705856895   29   29    7    7
 -0.7367981893434443   29   29    8    8
 -0.7366015466225878   29   29    9    9
 -0.736433192594104   29   29   10   10
 -0.6442633130311629   29   29   11   11
 -0.63818584778696   29   29   12   12
 -0.6366786125833144   29   29   13   13
 -0.6299044248672976   29   29   14   14
 -0.6106355298452242   29   29   15   15
 -0.6096743234405959   29   29   16   16
 -0.589822130768884   29   29   17   17
 -0.5804743840778143   29   29   18   18
 -0.5801740500891991   29   29   19   19
 -0.578356488854699   29   29   20   20
 -0.5778000059405585   29   29   21   21
 -0.57762754590719   29   29   22   22
 -0.5762384500043908   29   29   23   23
 -0.5755104347123524   29   29   24   24
 -0.5731556482065534   29   29   25   25
 -0.5729272808740032   29   29   26   26
 -0.5693584449571708   29   29   27   27
 -0.5624907808833943   29   29   28   28
 -0.5606885118077619   29   29   29   29
 -0.8232165126389761   30   30    1    1
 -0.8114698050463307   30   30    2    2
 -0.7925061836941744   30   30    3    3
 -0.7755501156746446   30   30    4    4
 -0.7377669652943757   30   30    5    5
 -0.7375078247478944   30   30    6    6
 -0.7373035204836941   30   30    7    7
 -0.7365374104907869   30   30    8    8
 -0.7363408373687214   30   30    9    9
 -0.736172542926663   30   30   10   10
 -0.6440352855332517   30   30   11   11
 -0.6379599713182402   30   30   12   12
 -0.6364532695782659   30   30   13   13
 -0.6296814794860839   30   30   14   14
 -0.6104194044052217   30   30   15   15
 -0.6094585382054243   30   30   16   16
 -0.589613371924524   30   30   17   17
 -0.5802689337305329   30   30   18   18
 -0.5799687060407037   30   30   19   19
 -0.5781517881051969   30   30   20   20
 -0.5775955021499766   30   30   21   21
 -0.5774231031562934   30   30   22   22
 -0.5760344989035022   30   30   23   23
 -0.5753067412817396   30   30   24   24
 -0.5729527882178955   30   30   25   25
 -0.5727245017125947   30   30   26   26
 -0.5691569289326011   30   30   27   27
 -0.5622916955672377   30   30   28   28
 -0.5604900643781642   30   30   29   29
 -0.5602916871861076   30   30   30   30
 -0.822009130590577   31   31    1    1
 -0.8102796514714343   31   31    2    2
 -0.7913438433806032   31   31    3    3
 -0.7744126442161364   31   31    4    4
 -0.736684909023489   31   31    5    5
 -0.7364261485491262   31   31    6    6
 -0.7362221439306416   31   31    7    7
 -0.7354571575637042   31   31    8    8
 -0.7352608727483662   31   31    9    9
 -0.7350928251377125   31   31   10   10
 -0.6430907021455888   31   31   11   11
 -0.6370242983754104   31   31   12   12
 -0.6355198064606827   31   31   13   13
 -0.6287579483094513   31   31   14   14
 -0.6095241242212628   31   31   15   15
 -0.6085646672893588   31   31   16   16
 -0.588748607200022   31   31   17   17
 -0.5794178741574152   31   31   18   18
 -0.5791180868007396   31   31   19   19
 -0.5773038336734151   31   31   20   20
 -0.576748363602796   31   31   21   21
 -0.5765762174605159   31   31   22   22
 -0.5751896498236349   31   31   23   23
 -0.574462959577799   31   31   24   24
 -0.5721124589722429   31   31   25   25
 -0.5718845072865482   31   31   26   26
 -0.5683221669372271   31   31   27   27
 -0.5614670025627017   31   31   28   28
 -0.5596680137612895   31   31   29   29
 -0.5594699275219248   31   31   30   30
 -0.5586493731030834   31   31   31   31
 -0.8175908117747542   32   32    1    1
 -0.8059243788875368   32   32    2    2
 -0.7870903512198993   32   32    3    3
 -0.7702501576575103   32   32    4    4
 -0.7327252099474791   32   32    5    5
 -0.7324678403168796   32   32    6    6
 -0.7322649322281181   32   32    7    7
 -0.7315040576812727   32   32    8    8
 -0.7313088279015304   32   32    9    9
 -0.7311416835508193   32   32   10   10
 -0.6396340741790245   32   32   11   11
 -0.6336002774747834   32   32   12   12
 -0.6321038722402248   32   32   13   13
 -0.6253783592389285   32   32   14   14
 -0.6062479174170757   32   32   15   15
 -0.6052936175892201   32   32   16   16
 -0.5855840692987063   32   32   17   17
 -0.5763034891702625   32   32   18   18
 -0.5760053131778278   32   32   19   19
 -0.5742008117046283   32   32   20   20
 -0.5736483272989773   32   32   21   21
 -0.5734771064463456   32   32   22   22
 -0.5720979916438085   32   32   23   23
 -0.571375207375494   32   32   24   24
 -0.5690373407671355   32   32   25   25
 -0.5688106143272251   32   32   26   26
 -0.565267421642824   32   32   27   27
 -0.5584491039414247   32   32   28   28
 -0.5566597847480192   32   32   29   29
 -0.5564627632269479   32   32   30   30
 -0.5556466193078116   32   32   31   31
 -0.5526600053862943   32   32   32   32
 -0.8097794856442392   33   33    1    1
 -0.7982245147631372   33   33    2    2
 -0.7795704288589641   33   33    3    3
 -0.7628911278141062   33   33    4    4
 -0.725724696369635   33   33    5    5
 -0.7254697856684801   33   33    6    6
 -0.7252688161793615   33   33    7    7
 -0.7245152110870455   33   33    8    8
 -0.7243218465477854   33   33    9    9
 -0.7241562991071856   33   33   10   10
 -0.6335229605441286   33   33   11   11
 -0.6275468112023374   33   33   12   12
 -0.6260647027396384   33   33   13   13
 -0.6194034458120303   33   33   14   14
 -0.6004557777174984   33   33   15   15
 -0.5995105953443332   33   33   16   16
 -0.5799893536093299   33   33   17   17
 -0.5707974408643982   33   33   18   18
 -0.5705021136685591   33   33   19   19
 -0.5687148525426178   33   33   20   20
 -0.5681676466158984   33   33   21   21
 -0.5679980616205941   33   33   22   22
 -0.5666321229880174   33   33   23   23
 -0.5659162442567521   33   33   24   24
 -0.5636007138075878   33   33   25   25
 -0.5633761535296977   33   33   26   26
 -0.5598668127834574   33   33   27   27
 -0.5531136378190606   33   33   28   28
 -0.5513414139202327   33   33   29   29
 -0.5511462747580794   33   33   30   30
 -0.550337928341349   33   33   31   31
 -0.5473798487612541   33   33   32   32
 -0.5421501391628003   33   33   33   33
 -0.8036157273557583   34   34    1    1
 -0.7921487088725673   34   34    2    2
 -0.7736366113475075   34   34    3    3
 -0.7570842673099385   34   34    4    4
 -0.7202007337456068   34   34    5    5
 -0.7199477633355742   34   34    6    6
 -0.7197483235559335   34   34    7    7
 -0.7190004546420666   34   34    8    8
 -0.7188085619260653   34   34    9    9
 -0.7186442745746964   34   34   10   10
 -0.6287008052929491   34   34   11   11
 -0.6227701443102626   34   34   12   12
 -0.6212993171389317   34   34   13   13
 -0.6146887633698094   34   34   14   14
 -0.5958853182993668   34   34   15   15
 -0.5949473303239234   34   34   16   16
 -0.5755746774549987   34   34   17   17
 -0.5664527303357378   34   34   18   18
 -0.5661596510672463   34   34   19   19
 -0.5643859939480427   34   34   20   20
 -0.5638429531614955   34   34   21   21
 -0.5636746589878765   34   34   22   22
 -0.5623191174025421   34   34   23   23
 -0.5616086876898574   34   34   24   24
 -0.5593107822487986   34   34   25   25
 -0.5590879312452216   34   34   26   26
 -0.5556053023736278   34   34   27   27
 -0.5489035302156718   34   34   28   28
 -0.5471447958654669   34   34   29   29
 -0.5469511420343814   34   34   30   30
 -0.5461489484679201   34   34   31   31
 -0.5432133847552347   34   34   32   32
 -0.5380234818775677   34   34   33   33
 -0.5339282352646185   34   34   34   34
 -0.8018153453507586   35   35    1    1
 -0.790374017023976   35   35    2    2
 -0.771903393111396   35   35    3    3
 -0.755388132148898   35   35    4    4
 -0.7185872306783015   35   35    5    5
 -0.7183348270110026   35   35    6    6
 -0.718135834046647   35   35    7    7
 -0.7173896406223067   35   35    8    8
 -0.7171981778135125   35   35    9    9
 -0.7170342585236198   35   35   10   10
 -0.6272922942623068   35   35   11   11
 -0.6213749200470983   35   35   12   12
 -0.6199073880461847   35   35   13   13
 -0.6133116442436222   35   35   14   14
 -0.59455032550668   35   35   15   15
 -0.5936144389543602   35   35   16   16
 -0.574285187644697   35   35   17   17
 -0.5651836768968075   35   35   18   18
 -0.5648912542290058   35   35   19   19
 -0.5631215707258623   35   35   20   20
 -0.5625797465417619   35   35   21   21
 -0.562411829406311   35   35   22   22
 -0.5610593247111147   35   35   23   23
 -0.560350486610972   35   35   24   24
 -0.5580577292866865   35   35   25   25
 -0.5578353775477741   35   35   26   26
 -0.5543605509903177   35   35   27   27
 -0.5476737931602103   35   35   28   28
 -0.545918998993812   35   35   29   29
 -0.5457257790154508   35   35   30   30
 -0.5449253826448536   35   35   31   31
 -0.5419963956278488   35   35   32   32
 -0.5368181199588469   35   35   33   33
 -0.5327320481393433   35   35   34   34
 -0.5315385408941422   35   35   35   35
 -0.7997510593305154   36   36    1    1
 -0.7883391868806439   36   36    2    2
 -0.7699161158752874   36   36    3    3
 -0.7534433737078252   36   36    4    4
 -0.7167372167278133   36   36    5    5
 -0.7164854628776635   36   36    6    6
 -0.7162869822237754   36   36    7    7
 -0.7155427098859586   36   36    8    8
 -0.7153517400011297   36   36    9    9
 -0.7151882427239867   36   36   10   10
 -0.6256773205390419   36   36   11   11
 -0.6197751806953627   36   36   12   12
 -0.6183114268783058   36   36   13   13
 -0.6117326639202776   36   36   14   14
 -0.5930196464888849   36   36   15   15
 -0.5920861693909834   36   36   16   16
 -0.5728066815380708   36   36   17   17
 -0.5637286027705105   36   36   18   18
 -0.5634369329493943   36   36   19   19
 -0.5616718055238279   36   36   20   20
 -0.5611313762744778   36   36   21   21
 -0.5609638914442918   36   36   22   22
 -0.5596148687933727   36   36   23   23
 -0.5589078556078929   36   36   24   24
 -0.5566210010228352   36   36   25   25
 -0.556399221731917   36   36   26   26
 -0.5529333411692297   36   36   27   27
 -0.5462637985006797   36   36   28   28
 -0.5445135220790304   36   36   29   29
 -0.544320799548495   36   36   30   30
 -0.5435224638107455   36   36   31   31
 -0.5406010175161624   36   36   32   32
 -0.5354360733980399   36   36   33   33
 -0.5313605212336958   36   36   34   34
 -0.5301700866913752   36   36   35   35
 -0.5288051555951395   36   36   36   36
 -0.6047612718340906    1    1  0  0
 -0.5876253918820027    2    2  0  0
 -0.5604813221018615    3    3  0  0
 -0.5367543332149836    4    4  0  0
 -0.4857292259798214    5    5  0  0
 -0.4853880612579054    6    6  0  0
 -0.4851191743070431    7    7  0  0
 -0.4841115524816633    8    8  0  0
 -0.4838531796713702    9    9  0  0
 -0.4836320307382092   10   10  0  0
 -0.3701477806096046   11   11  0  0
 -0.3631973615817562   12   12  0  0
 -0.3614838249619747   13   13  0  0
 -0.3538324543052535   14   14  0  0
 -0.3325159535613975   15   15  0  0
 -0.3314699452859404   16   16  0  0
 -0.3102347726218657   17   17  0  0
 -0.3004792353281218   18   18  0  0
 -0.3001683834323969   19   19  0  0
 -0.2982906026751457   20   20  0  0
 -0.2977168604618873   21   21  0  0
 -0.2975391636926918   22   22  0  0
 -0.2961098223618588   23   23  0  0
 -0.2953620891882662   24   24  0  0
 -0.2929499982190706   25   25  0  0
 -0.2927165995530702   26   26  0  0
 -0.2890812206931686   27   27  0  0
 -0.2821494215733909   28   28  0  0
 -0.280344255903881   29   29  0  0
 -0.2801458435930538   30   30  0  0
 -0.2793246865515417   31   31  0  0
 -0.2763300026931472   32   32  0  0
 -0.2710750695814002   33   33  0  0
 -0.2669641176323093   34   34  0  0
 -0.2657692704470711   35   35  0  0
 -0.2644025777975698   36   36  0  0
 -4418.851105195752  0  0  0  0
