 &FCI NORB=  34,NELEC=54,MS2=0,
  ORBSYM=1,1,1,1,1,1,1,1,1,1,1,1,1,1,1,1,1,1,1,1,1,1,1,1,1,1,1,1,1,1,1,1,1,1,
  ISYM=1,
 &END
 -0.5312985478485885    1    1    1    1
 -0.5354662403861195    2    2    1    1
 -0.5396666257686765    2    2    2    2
 -0.5399160427644519    3    3    1    1
 -0.5441513339607756    3    3    2    2
 -0.548673310730563    3    3    3    3
 -0.54239320376358    4    4    1    1
 -0.5466479266813946    4    4    2    2
 -0.5511906504999931    4    4    3    3
 -0.5537195399464182    4    4    4    4
 -0.5429601210877626    5    5    1    1
 -0.5472192911043147    5    5    2    2
 -0.5517667630444122    5    5    3    3
 -0.5542982957231422    5    5    4    4
 -0.5548776564238844    5    5    5    5
 -0.5463388310568102    6    6    1    1
 -0.5506245048618283    6    6    2    2
 -0.5552002746237754    6    6    3    3
 -0.5577475604202141    6    6    4    4
 -0.5583305263429592    6    6    5    5
 -0.5618048826393282    6    6    6    6
 -0.5510332608804178    7    7    1    1
 -0.5553557594428592    7    7    2    2
 -0.5599708466188639    7    7    3    3
 -0.5625400200310682    7    7    4    4
 -0.563127995102822    7    7    5    5
 -0.5666322048909955    7    7    6    6
 -0.5715010060276665    7    7    7    7
 -0.5574650397086039    8    8    1    1
 -0.5618379914046625    8    8    2    2
 -0.5665069468715603    8    8    3    3
 -0.5691061082288339    8    8    4    4
 -0.5697009462721837    8    8    5    5
 -0.5732460579512688    8    8    6    6
 -0.5781716887827923    8    8    7    7
 -0.5849202331828676    8    8    8    8
 -0.5578350943510823    9    9    1    1
 -0.5622109488858145    9    9    2    2
 -0.5668830036836532    9    9    3    3
 -0.5694838904078255    9    9    4    4
 -0.5700791233146445    9    9    5    5
 -0.5736265882983164    9    9    6    6
 -0.5785554888461926    9    9    7    7
 -0.5853085130432188    9    9    8    8
 -0.5856970506502532    9    9    9    9
 -0.5585859645668692   10   10    1    1
 -0.5629677091914721   10   10    2    2
 -0.5676460527775742   10   10    3    3
 -0.57025044040801   10   10    4    4
 -0.5708464745241214   10   10    5    5
 -0.5743987145494226   10   10    6    6
 -0.5793342496110743   10   10    7    7
 -0.5860963636713726   10   10    8    8
 -0.5864854242668669   10   10    9    9
 -0.5872748590685397   10   10   10   10
 -0.56185115458935   11   11    1    1
 -0.5662585125120607   11   11    2    2
 -0.5709642031526325   11   11    3    3
 -0.5735838146179748   11   11    4    4
 -0.5741833328256538   11   11    5    5
 -0.5777563373159145   11   11    6    6
 -0.5827207228336484   11   11    7    7
 -0.5895223645383224   11   11    8    8
 -0.5899136993706487   11   11    9    9
 -0.5907077487792064   11   11   10   10
 -0.594160705297746   11   11   11   11
 -0.5664081331642135   12   12    1    1
 -0.570851237628444   12   12    2    2
 -0.5755950944830637   12   12    3    3
 -0.5782359527025053   12   12    4    4
 -0.5788403333930775   12   12    5    5
 -0.5824423172754368   12   12    6    6
 -0.5874469671910578   12   12    7    7
 -0.5943037746371722   12   12    8    8
 -0.5946982834497102   12   12    9    9
 -0.5954987731158211   12   12   10   10
 -0.5989797353592692   12   12   11   11
 -0.6038378508913171   12   12   12   12
 -0.5687264507450269   13   13    1    1
 -0.5731877409071487   13   13    2    2
 -0.5779510144440209   13   13    3    3
 -0.5806026817385448   13   13    4    4
 -0.5812095361689846   13   13    5    5
 -0.5848262630291923   13   13    6    6
 -0.5898513970572506   13   13    7    7
 -0.596736269526305   13   13    8    8
 -0.5971323930697451   13   13    9    9
 -0.5979361591529087   13   13   10   10
 -0.6014313690306943   13   13   11   11
 -0.6063093689075955   13   13   12   12
 -0.6087910028867864   13   13   13   13
 -0.5689513492353115   14   14    1    1
 -0.5734144035802331   14   14    2    2
 -0.5781795607169025   14   14    3    3
 -0.5808322765928147   14   14    4    4
 -0.5814393709991604   14   14    5    5
 -0.5850575280661214   14   14    6    6
 -0.5900846492446894   14   14    7    7
 -0.5969722442834818   14   14    8    8
 -0.5973685244709233   14   14    9    9
 -0.5981726083971876   14   14   10   10
 -0.6016692004287726   14   14   11   11
 -0.6065491292731177   14   14   12   12
 -0.6090317445953333   14   14   13   13
 -0.6092725815033326   14   14   14   14
 -0.5701220934846617   15   15    1    1
 -0.5745943315589407   15   15    2    2
 -0.5793692940688154   15   15    3    3
 -0.5820274684990681   15   15    4    4
 -0.5826358121375073   15   15    5    5
 -0.5862614143693053   15   15    6    6
 -0.5912988799705001   15   15    7    7
 -0.5982006477716815   15   15    8    8
 -0.5985977433939597   15   15    9    9
 -0.5994034819021735   15   15   10   10
 -0.6029072689514325   15   15   11   11
 -0.6077972393373601   15   15   12   12
 -0.6102849631941027   15   15   13   13
 -0.6105262956777353   15   15   14   14
 -0.6117825896485685   15   15   15   15
 -0.571838264810308   16   16    1    1
 -0.5763239651356244   16   16    2    2
 -0.5811133011522167   16   16    3    3
 -0.5837794771715815   16   16    4    4
 -0.584389652035157   16   16    5    5
 -0.5880261679899269   16   16    6    6
 -0.5930787972799482   16   16    7    7
 -0.6000013406590838   16   16    8    8
 -0.6003996316114997   16   16    9    9
 -0.6012077955393554   16   16   10   10
 -0.6047221296257032   16   16   11   11
 -0.609626819712999   16   16   12   12
 -0.612122032071587   16   16   13   13
 -0.6123640910099439   16   16   14   14
 -0.6136241666544117   16   16   15   15
 -0.6154712871424097   16   16   16   16
 -0.5735399739128414   17   17    1    1
 -0.5780390230424345   17   17    2    2
 -0.5828426114398065   17   17    3    3
 -0.5855167216186711   17   17    4    4
 -0.5861287122755984   17   17    5    5
 -0.5897760499830955   17   17    6    6
 -0.5948437151771191   17   17    7    7
 -0.6017868590578404   17   17    8    8
 -0.6021863352673138   17   17    9    9
 -0.6029969041757332   17   17   10   10
 -0.6065216964189971   17   17   11   11
 -0.6114409821643317   17   17   12   12
 -0.6139436199189532   17   17   13   13
 -0.6141863991901807   17   17   14   14
 -0.6154502246400148   17   17   15   15
 -0.6173028418950908   17   17   16   16
 -0.6191398470934418   17   17   17   17
 -0.574831815984358   18   18    1    1
 -0.579340998777186   18   18    2    2
 -0.5841554067823767   18   18    3    3
 -0.5868355401299654   18   18    4    4
 -0.5874489092353251   18   18    5    5
 -0.5911044622103081   18   18    6    6
 -0.5961835418190191   18   18    7    7
 -0.6031423244446956   18   18    8    8
 -0.6035427004348252   18   18    9    9
 -0.6043550950695502   18   18   10   10
 -0.6078878265587609   18   18   11   11
 -0.6128181925087486   18   18   12   12
 -0.6153264672074161   18   18   13   13
 -0.6155697933149428   18   18   14   14
 -0.6168364654066176   18   18   15   15
 -0.6186932554988478   18   18   16   16
 -0.6205343983697391   18   18   17   17
 -0.6219320907348734   18   18   18   18
 -0.5916944292260065   19   19    1    1
 -0.5963358882835732   19   19    2    2
 -0.6012915262936479   19   19    3    3
 -0.6040502809889416   19   19    4    4
 -0.6046816431936922   19   19    5    5
 -0.6084444313186573   19   19    6    6
 -0.6136725050377909   19   19    7    7
 -0.62083542260657   19   19    8    8
 -0.6212475435719862   19   19    9    9
 -0.6220837696929722   19   19   10   10
 -0.6257201333805629   19   19   11   11
 -0.6307951309459945   19   19   12   12
 -0.6333769855422449   19   19   13   13
 -0.6336274495880843   19   19   14   14
 -0.6349312793335146   19   19   15   15
 -0.6368425381108898   19   19   16   16
 -0.6387376906578136   19   19   17   17
 -0.6401763841386284   19   19   18   18
 -0.6589558714112335   19   19   19   19
 -0.5923557365234546   20   20    1    1
 -0.5970023831078831   20   20    2    2
 -0.6019635597869358   20   20    3    3
 -0.6047253978045015   20   20    4    4
 -0.6053574656512402   20   20    5    5
 -0.6091244592564716   20   20    6    6
 -0.6143583761323619   20   20    7    7
 -0.6215292993361872   20   20    8    8
 -0.6219418809086135   20   20    9    9
 -0.6227790416377498   20   20   10   10
 -0.6264194695073303   20   20   11   11
 -0.6315001391439506   20   20   12   12
 -0.6340848793500719   20   20   13   13
 -0.6343356233270601   20   20   14   14
 -0.6356409102978463   20   20   15   15
 -0.6375543051936542   20   20   16   16
 -0.6394515758578817   20   20   17   17
 -0.6408918772945108   20   20   18   18
 -0.659692353461657   20   20   19   19
 -0.6604296586412675   20   20   20   20
 -0.6192734437335871   21   21    1    1
 -0.6241312422737688   21   21    2    2
 -0.6293178637202651   21   21    3    3
 -0.6322052046114166   21   21    4    4
 -0.6328659947548875   21   21    5    5
 -0.6368041673066133   21   21    6    6
 -0.6422759227537215   21   21    7    7
 -0.6497727055708253   21   21    8    8
 -0.6502040355899739   21   21    9    9
 -0.6510792384043055   21   21   10   10
 -0.6548850938463242   21   21   11   11
 -0.6601966382247216   21   21   12   12
 -0.6628988336622059   21   21   13   13
 -0.6631609718952823   21   21   14   14
 -0.6645255734473893   21   21   15   15
 -0.666525916439429   21   21   16   16
 -0.6685094024858824   21   21   17   17
 -0.6700151538033433   21   21   18   18
 -0.6896699573310185   21   21   19   19
 -0.6904407669805371   21   21   20   20
 -0.7218156339153919   21   21   21   21
 -0.6217783988859927   22   22    1    1
 -0.6266558471747723   22   22    2    2
 -0.6318634484553748   22   22    3    3
 -0.6347624686127943   22   22    4    4
 -0.6354259316460706   22   22    5    5
 -0.6393800340680732   22   22    6    6
 -0.6448739227135909   22   22    7    7
 -0.652401029945433   22   22    8    8
 -0.6528341046903805   22   22    9    9
 -0.653712847691719   22   22   10   10
 -0.6575340977825722   22   22   11   11
 -0.6628671273071397   22   22   12   12
 -0.665580253099304   22   22   13   13
 -0.665843451679024   22   22   14   14
 -0.6672135730313479   22   22   15   15
 -0.6692220073916437   22   22   16   16
 -0.6712135166201696   22   22   17   17
 -0.672725358687297   22   22   18   18
 -0.692459665707112   22   22   19   19
 -0.6932335932742849   22   22   20   20
 -0.7247353712455806   22   22   21   21
 -0.727666918885323   22   22   22   22
 -0.6296922225357786   23   23    1    1
 -0.6346317496386299   23   23    2    2
 -0.6399056318293557   23   23    3    3
 -0.6428415499142748   23   23    4    4
 -0.6435134573217092   23   23    5    5
 -0.6475178864667323   23   23    6    6
 -0.6530816998088462   23   23    7    7
 -0.6607046099816277   23   23    8    8
 -0.6611431967822606   23   23    9    9
 -0.6620331241817038   23   23   10   10
 -0.6659030100878168   23   23   11   11
 -0.6713039169385381   23   23   12   12
 -0.6740515746460879   23   23   13   13
 -0.674318123144603   23   23   14   14
 -0.675705683022904   23   23   15   15
 -0.6777396801807626   23   23   16   16
 -0.6797565367884508   23   23   17   17
 -0.6812876211636529   23   23   18   18
 -0.701273100990187   23   23   19   19
 -0.7020568788935815   23   23   20   20
 -0.7339596027902522   23   23   21   21
 -0.7369284623583012   23   23   22   22
 -0.7463078841974327   23   23   23   23
 -0.630479274092558   24   24    1    1
 -0.6354249751044349   24   24    2    2
 -0.6407054491142112   24   24    3    3
 -0.6436450367996377   24   24    4    4
 -0.6443177840233378   24   24    5    5
 -0.6483272182995662   24   24    6    6
 -0.6538979858453304   24   24    7    7
 -0.6615304238844313   24   24    8    8
 -0.6619695588741824   24   24    9    9
 -0.6628605985928192   24   24   10   10
 -0.6667353214647036   24   24   11   11
 -0.6721429789024462   24   24   12   12
 -0.6748940709040826   24   24   13   13
 -0.6751609525612476   24   24   14   14
 -0.6765502467489831   24   24   15   15
 -0.6785867861974596   24   24   16   16
 -0.6806061636718128   24   24   17   17
 -0.6821391617475465   24   24   18   18
 -0.7021496214014431   24   24   19   19
 -0.7029343789479028   24   24   20   20
 -0.7348769780210641   24   24   21   21
 -0.737849548363141   24   24   22   22
 -0.7472406935304253   24   24   23   23
 -0.7481746687806891   24   24   24   24
 -0.7108886043030145   25   25    1    1
 -0.7164650643614257   25   25    2    2
 -0.7224189933058324   25   25    3    3
 -0.7257334866964785   25   25    4    4
 -0.7264920339708411   25   25    5    5
 -0.7310128187988195   25   25    6    6
 -0.7372940643975822   25   25    7    7
 -0.7458999194161392   25   25    8    8
 -0.7463950602919659   25   25    9    9
 -0.7473997403948479   25   25   10   10
 -0.7517686331525352   25   25   11   11
 -0.7578659660965857   25   25   12   12
 -0.7609679236608011   25   25   13   13
 -0.7612688425594425   25   25   14   14
 -0.7628353229286934   25   25   15   15
 -0.7651315961697437   25   25   16   16
 -0.767408518652834   25   25   17   17
 -0.7691370304489213   25   25   18   18
 -0.7916995607641241   25   25   19   19
 -0.7925844038031311   25   25   20   20
 -0.8286008608161125   25   25   21   21
 -0.8319525433669989   25   25   22   22
 -0.8425414054519367   25   25   23   23
 -0.8435944969481943   25   25   24   24
 -0.9511838678541016   25   25   25   25
 -0.7112919688060568   26   26    1    1
 -0.7168715929973949   26   26    2    2
 -0.7228289002539243   26   26    3    3
 -0.7261452743175357   26   26    4    4
 -0.7269042519983535   26   26    5    5
 -0.7314276019597643   26   26    6    6
 -0.7377124115930241   26   26    7    7
 -0.7463231496500936   26   26    8    8
 -0.7468185714732476   26   26    9    9
 -0.7478238216405361   26   26   10   10
 -0.752195193346747   26   26   11   11
 -0.7582959859716223   26   26   12   12
 -0.7613997036140888   26   26   13   13
 -0.7617007932567839   26   26   14   14
 -0.7632681624608983   26   26   15   15
 -0.7655657386277643   26   26   16   16
 -0.7678439530568788   26   26   17   17
 -0.7695734456258994   26   26   18   18
 -0.7921487781210398   26   26   19   19
 -0.7930341232278399   26   26   20   20
 -0.8290710162981677   26   26   21   21
 -0.8324246006234788   26   26   22   22
 -0.8430194709227372   26   26   23   23
 -0.8440731599524557   26   26   24   24
 -0.9517235780222439   26   26   25   25
 -0.9522635944267256   26   26   26   26
 -0.7114731945805205   27   27    1    1
 -0.7170542403705263   27   27    2    2
 -0.7230130654533052   27   27    3    3
 -0.7263302844757864   27   27    4    4
 -0.7270894555319326   27   27    5    5
 -0.731613957970295   27   27    6    6
 -0.7379003688721522   27   27    7    7
 -0.7465133008070405   27   27    8    8
 -0.7470088488557214   27   27    9    9
 -0.7480143551446141   27   27   10   10
 -0.7523868406061571   27   27   11   11
 -0.7584891876150502   27   27   12   12
 -0.7615936960349444   27   27   13   13
 -0.7618948623904467   27   27   14   14
 -0.7634626309350716   27   27   15   15
 -0.7657607924874593   27   27   16   16
 -0.7680395873690355   27   27   17   17
 -0.769769520584997   27   27   18   18
 -0.7923506049124295   27   27   19   19
 -0.7932361755909493   27   27   20   20
 -0.8292822502830898   27   27   21   21
 -0.8326366890478482   27   27   22   22
 -0.8432342587499669   27   27   23   23
 -0.8442882162427342   27   27   24   24
 -0.9519660619108107   27   27   25   25
 -0.9525062159028027   27   27   26   26
 -0.952748899194937   27   27   27   27
 -0.7116396301032273   28   28    1    1
 -0.7172219814719681   28   28    2    2
 -0.7231822005077095   28   28    3    3
 -0.7265001955300263   28   28    4    4
 -0.7272595441796961   28   28    5    5
 -0.7317851050387186   28   28    6    6
 -0.7380729865259644   28   28    7    7
 -0.7466879332912632   28   28    8    8
 -0.7471835972639158   28   28    9    9
 -0.7481893387717402   28   28   10   10
 -0.7525628470924841   28   28   11   11
 -0.7586666216285447   28   28   12   12
 -0.7617718562887044   28   28   13   13
 -0.7620730930963053   28   28   14   14
 -0.7636412283903444   28   28   15   15
 -0.7659399275535966   28   28   16   16
 -0.7682192555155757   28   28   17   17
 -0.7699495934162692   28   28   18   18
 -0.7925359601557476   28   28   19   19
 -0.7934217379965609   28   28   20   20
 -0.8294762449772662   28   28   21   21
 -0.8328314684487056   28   28   22   22
 -0.8434315172492167   28   28   23   23
 -0.8444857212951467   28   28   24   24
 -0.9521887561322097   28   28   25   25
 -0.9527290364828792   28   28   26   26
 -0.95297177654612   28   28   27   27
 -0.9531947060351893   28   28   28   28
 -0.7117821566138024   29   29    1    1
 -0.717365626010584   29   29    2    2
 -0.7233270387533444   29   29    3    3
 -0.7266456983005591   29   29    4    4
 -0.7274051990318567   29   29    5    5
 -0.7319316662659185   29   29    6    6
 -0.7382208070841085   29   29    7    7
 -0.7468374792427795   29   29    8    8
 -0.7473332424865428   29   29    9    9
 -0.7483391854233231   29   29   10   10
 -0.752713569666168   29   29   11   11
 -0.758818566660407   29   29   12   12
 -0.7619244232340211   29   29   13   13
 -0.7622257203730444   29   29   14   14
 -0.7637941697317336   29   29   15   15
 -0.7660933292762754   29   29   16   16
 -0.7683731137398981   29   29   17   17
 -0.7701037981910264   29   29   18   18
 -0.7926946885066264   29   29   19   19
 -0.793580643750186   29   29   20   20
 -0.8296423716933746   29   29   21   21
 -0.8329982671457904   29   29   22   22
 -0.8436004389140279   29   29   23   23
 -0.8446548540949447   29   29   24   24
 -0.9523794595937366   29   29   25   25
 -0.9529198481512426   29   29   26   26
 -0.9531626368302331   29   29   27   27
 -0.9533856109674091   29   29   28   28
 -0.9535765541338879   29   29   29   29
 -0.7122538100326712   30   30    1    1
 -0.7178409792446359   30   30    2    2
 -0.7238063422419443   30   30    3    3
 -0.727127200856819   30   30    4    4
 -0.7278872048616437   30   30    5    5
 -0.7324166715018111   30   30    6    6
 -0.7387099797394018   30   30    7    7
 -0.7473323616265974   30   30    8    8
 -0.7478284533815867   30   30    9    9
 -0.7488350628936962   30   30   10   10
 -0.7532123457667813   30   30   11   11
 -0.7593213881598516   30   30   12   12
 -0.7624293027899339   30   30   13   13
 -0.7627307995796851   30   30   14   14
 -0.7643002882514501   30   30   15   15
 -0.7666009713049049   30   30   16   16
 -0.768882266438789   30   30   17   17
 -0.7706140977060193   30   30   18   18
 -0.7932199575885767   30   30   19   19
 -0.7941064998991424   30   30   20   20
 -0.8301921236889978   30   30   21   21
 -0.8335502428829739   30   30   22   22
 -0.8441594400458711   30   30   23   23
 -0.8452145539216349   30   30   24   24
 -0.953010541764038   30   30   25   25
 -0.9535512884031682   30   30   26   26
 -0.9537942379629977   30   30   27   27
 -0.9540173598511579   30   30   28   28
 -0.9542084295437043   30   30   29   29
 -0.954840723657747   30   30   30   30
 -0.7491528882748518   31   31    1    1
 -0.7550295068249606   31   31    2    2
 -0.7613039118981136   31   31    3    3
 -0.7647968111818277   31   31    4    4
 -0.7655961880153315   31   31    5    5
 -0.7703603085690289   31   31    6    6
 -0.7769796484399926   31   31    7    7
 -0.7860487221376188   31   31    8    8
 -0.7865705144620185   31   31    9    9
 -0.7876292724675772   31   31   10   10
 -0.7922333252096992   31   31   11   11
 -0.7986588531449618   31   31   12   12
 -0.8019277766506585   31   31   13   13
 -0.8022448928073799   31   31   14   14
 -0.8038956905356692   31   31   15   15
 -0.8063155629606712   31   31   16   16
 -0.8087150430539799   31   31   17   17
 -0.810536593711309   31   31   18   18
 -0.8343135745914503   31   31   19   19
 -0.8352460451843527   31   31   20   20
 -0.8732011237063333   31   31   21   21
 -0.8767332138937105   31   31   22   22
 -0.8878920319792146   31   31   23   23
 -0.8890018071693974   31   31   24   24
 -1.002382282639052   31   31   25   25
 -1.002951043242116   31   31   26   26
 -1.003206579066408   31   31   27   27
 -1.003441260025074   31   31   28   28
 -1.0036422282895   31   31   29   29
 -1.004307279083335   31   31   30   30
 -1.056336502862971   31   31   31   31
 -0.7648475619187719   32   32    1    1
 -0.7708472950049351   32   32    2    2
 -0.7772531481996588   32   32    3    3
 -0.7808192233533281   32   32    4    4
 -0.7816353470468076   32   32    5    5
 -0.7864992754213929   32   32    6    6
 -0.7932572897613988   32   32    7    7
 -0.8025163595922105   32   32    8    8
 -0.8030490834105275   32   32    9    9
 -0.8041300222841377   32   32   10   10
 -0.8088305294434526   32   32   11   11
 -0.815390671508237   32   32   12   12
 -0.8187280786150674   32   32   13   13
 -0.8190518383216767   32   32   14   14
 -0.8207372200874877   32   32   15   15
 -0.8232077885834318   32   32   16   16
 -0.8256575375304938   32   32   17   17
 -0.8275172494811185   32   32   18   18
 -0.8517923555917596   32   32   19   19
 -0.852744361344797   32   32   20   20
 -0.8914945947408431   32   32   21   21
 -0.8951006818434551   32   32   22   22
 -0.9064932759856827   32   32   23   23
 -0.9076263008485298   32   32   24   24
 -1.023382085267718   32   32   25   25
 -1.023962761345163   32   32   26   26
 -1.024223650617901   32   32   27   27
 -1.02446324811779   32   32   28   28
 -1.024668426646065   32   32   29   29
 -1.025347410183576   32   32   30   30
 -1.078466640689405   32   32   31   31
 -1.101060402558832   32   32   32   32
 -0.7832351407180396   33   33    1    1
 -0.789379112434734   33   33    2    2
 -0.7959389677290382   33   33    3    3
 -0.7995907743292819   33   33    4    4
 -0.8004265183228982   33   33    5    5
 -0.8054073796272785   33   33    6    6
 -0.8123278623170452   33   33    7    7
 -0.8218095279755728   33   33    8    8
 -0.8223550589226243   33   33    9    9
 -0.8234619844760713   33   33   10   10
 -0.8282754957816917   33   33   11   11
 -0.8349933491802848   33   33   12   12
 -0.8384109903614819   33   33   13   13
 -0.8387425335237938   33   33   14   14
 -0.8404684332850443   33   33   15   15
 -0.8429983963259406   33   33   16   16
 -0.845507039298486   33   33   17   17
 -0.8474114602888443   33   33   18   18
 -0.87227016037127   33   33   19   19
 -0.873245053143464   33   33   20   20
 -0.9129268747481096   33   33   21   21
 -0.9166196552182081   33   33   22   22
 -0.9282861369073773   33   33   23   23
 -0.929446400641059   33   33   24   24
 -1.047985051494625   33   33   25   25
 -1.048579687513451   33   33   26   26
 -1.048846848783774   33   33   27   27
 -1.049092206409116   33   33   28   28
 -1.049302317601812   33   33   29   29
 -1.049997624474744   33   33   30   30
 -1.104393885967287   33   33   31   31
 -1.127530820878547   33   33   32   32
 -1.154637610322309   33   33   33   33
 -0.7941143677324221   34   34    1    1
 -0.80034367992939   34   34    2    2
 -0.806994652375132   34   34    3    3
 -0.8106971829929169   34   34    4    4
 -0.8115445355676092   34   34    5    5
 -0.8165945816136339   34   34    6    6
 -0.8236111906112192   34   34    7    7
 -0.8332245577062773   34   34    8    8
 -0.8337776661415026   34   34    9    9
 -0.8348999670193676   34   34   10   10
 -0.8397803385557254   34   34   11   11
 -0.8465915037177639   34   34   12   12
 -0.8500566163316522   34   34   13   13
 -0.8503927646669706   34   34   14   14
 -0.8521426373762294   34   34   15   15
 -0.8547077418974155   34   34   16   16
 -0.8572512302120269   34   34   17   17
 -0.8591821038309868   34   34   18   18
 -0.8843860941428974   34   34   19   19
 -0.8853745282888524   34   34   20   20
 -0.925607535001441   34   34   21   21
 -0.9293516086208886   34   34   22   22
 -0.9411801390948445   34   34   23   23
 -0.9423565190264583   34   34   24   24
 -1.062541685499117   34   34   25   25
 -1.063144581081264   34   34   26   26
 -1.063415453252641   34   34   27   27
 -1.063664218923877   34   34   28   28
 -1.063877248585428   34   34   29   29
 -1.064582213351528   34   34   30   30
 -1.119734045229957   34   34   31   31
 -1.143192354852629   34   34   32   32
 -1.17067566074804   34   34   33   33
 -1.186936481555715   34   34   34   34
 -0.2656492739242943    1    1  0  0
 -0.2698333128843383    2    2  0  0
 -0.2743366553652815    3    3  0  0
 -0.2768597699732091    4    4  0  0
 -0.2774388282119422    5    5  0  0
 -0.2809024413196641    6    6  0  0
 -0.2857505030138333    7    7  0  0
 -0.2924601165914338    8    8  0  0
 -0.2928485253251266    9    9  0  0
 -0.2936374295342699   10   10  0  0
 -0.297080352648873   11   11  0  0
 -0.3019189254456586   12   12  0  0
 -0.3043955014433932   13   13  0  0
 -0.3046362907516663   14   14  0  0
 -0.3058912948242842   15   15  0  0
 -0.3077356435712049   16   16  0  0
 -0.3095699235467209   17   17  0  0
 -0.3109660453674367   18   18  0  0
 -0.3294779357056167   19   19  0  0
 -0.3302148293206337   20   20  0  0
 -0.360907816957696   21   21  0  0
 -0.3638334594426615   22   22  0  0
 -0.3731539420987163   23   23  0  0
 -0.3740873343903445   24   24  0  0
 -0.4755919339270508   25   25  0  0
 -0.4761317972133628   26   26  0  0
 -0.4763744495974685   27   27  0  0
 -0.4765973530175946   28   28  0  0
 -0.4767882770669439   29   29  0  0
 -0.4774203618288735   30   30  0  0
 -0.5281682514314853   31   31  0  0
 -0.5505302012794159   32   32  0  0
 -0.5773188051611544   33   33  0  0
 -0.5934682407778576   34   34  0  0
 -4418.478429676084  0  0  0  0
