 &FCI NORB=  34,NELEC=32,MS2=0,
  ORBSYM=1,1,1,1,1,1,1,1,1,1,1,1,1,1,1,1,1,1,1,1,1,1,1,1,1,1,1,1,1,1,1,1,1,1,
  ISYM=1,
 &END
 -4.389434159310903    1    1    1    1
 -4.375711660255853    2    2    1    1
 -4.362032061258872    2    2    2    2
 -4.36462588379136    3    3    1    1
 -4.350980941780116    3    3    2    2
 -4.339957820087718    3    3    3    3
 -4.359632040640274    4    4    1    1
 -4.346002710665897    4    4    2    2
 -4.334992201220741    4    4    3    3
 -4.33003226383081    4    4    4    4
 -4.351933406917228    5    5    1    1
 -4.338328144850048    5    5    2    2
 -4.327337078761243    5    5    3    3
 -4.322385900078674    5    5    4    4
 -4.31475303896926    5    5    5    5
 -3.383499039185675    6    6    1    1
 -3.372921351792985    6    6    2    2
 -3.364376124172547    6    6    3    3
 -3.360526729719801    6    6    4    4
 -3.354592406784414    6    6    5    5
 -2.608096017088366    6    6    6    6
 -3.364038021481572    7    7    1    1
 -3.353521174230769    7    7    2    2
 -3.345025096565474    7    7    3    3
 -3.341197842841225    7    7    4    4
 -3.335297652607627    7    7    5    5
 -2.593094918469827    7    7    6    6
 -2.578180102318761    7    7    7    7
 -3.356720253066052    8    8    1    1
 -3.34622628303963    8    8    2    2
 -3.337748686832748    8    8    3    3
 -3.333929758506798    8    8    4    4
 -3.328042402915812    8    8    5    5
 -2.587454177202442    8    8    6    6
 -2.572571805146792    8    8    7    7
 -2.566975707664497    8    8    8    8
 -3.345045777336463    9    9    1    1
 -3.334588304720949    9    9    2    2
 -3.326140193095356    9    9    3    3
 -3.322334546777644    9    9    4    4
 -3.31646766706334    9    9    5    5
 -2.578455163666661    9    9    6    6
 -2.563624551626224    9    9    7    7
 -2.558047917042028    9    9    8    8
 -2.549151176750562    9    9    9    9
 -3.334387364020419   10   10    1    1
 -3.32396321234363   10   10    2    2
 -3.3155420191734   10   10    3    3
 -3.311748498893443   10   10    4    4
 -3.305900312982762   10   10    5    5
 -2.570239359554966   10   10    6    6
 -2.555456002710236   10   10    7    7
 -2.549897137113453   10   10    8    8
 -2.54102874475547   10   10    9    9
 -2.532932193493587   10   10   10   10
 -3.252419489402236   11   11    1    1
 -3.242251590363296   11   11    2    2
 -3.234037411924877   11   11    3    3
 -3.230337146195373   11   11    4    4
 -3.224632723836174   11   11    5    5
 -2.507056221376113   11   11    6    6
 -2.492636277718873   11   11    7    7
 -2.487214063431166   11   11    8    8
 -2.47856367911889   11   11    9    9
 -2.470666162050165   11   11   10   10
 -2.409930790875373   11   11   11   11
 -3.144061960040833   12   12    1    1
 -3.134232814481341   12   12    2    2
 -3.126292299413903   12   12    3    3
 -3.122715311648308   12   12    4    4
 -3.117200937687015   12   12    5    5
 -2.423531196697216   12   12    6    6
 -2.409591667535498   12   12    7    7
 -2.404350099608384   12   12    8    8
 -2.395987911291478   12   12    9    9
 -2.38835350771117   12   12   10   10
 -2.329641594699384   12   12   11   11
 -2.252027311449107   12   12   12   12
 -2.972145396773029   13   13    1    1
 -2.962853706564584   13   13    2    2
 -2.955347376980232   13   13    3    3
 -2.951965978058409   13   13    4    4
 -2.946753128759176   13   13    5    5
 -2.291013084903044   13   13    6    6
 -2.277835765894152   13   13    7    7
 -2.272880805659767   13   13    8    8
 -2.264975859819348   13   13    9    9
 -2.257758903618516   13   13   10   10
 -2.202257344103622   13   13   11   11
 -2.128886991477635   13   13   12   12
 -2.012479955035002   13   13   13   13
 -2.968212123888454   14   14    1    1
 -2.958932730101707   14   14    2    2
 -2.95143633423145   14   14    3    3
 -2.948059410179768   14   14    4    4
 -2.942853459452463   14   14    5    5
 -2.287981207776562   14   14    6    6
 -2.274821327346416   14   14    7    7
 -2.269872924399153   14   14    8    8
 -2.261978439792953   14   14    9    9
 -2.254771034355743   14   14   10   10
 -2.199342924403353   14   14   11   11
 -2.126069668513895   14   14   12   12
 -2.009816682623604   14   14   13   13
 -2.007156934729267   14   14   14   14
 -2.879163990321059   15   15    1    1
 -2.870162983880922   15   15    2    2
 -2.862891484356635   15   15    3    3
 -2.859615870040056   15   15    4    4
 -2.854566100938714   15   15    5    5
 -2.219340407292642   15   15    6    6
 -2.20657533112222   15   15    7    7
 -2.20177538321395   15   15    8    8
 -2.194117737853167   15   15    9    9
 -2.18712655887662   15   15   10   10
 -2.133361325272826   15   15   11   11
 -2.06228631075057   15   15   12   12
 -1.949520983754956   15   15   13   13
 -1.946941029883373   15   15   14   14
 -1.88853163808769   15   15   15   15
 -2.552193233639721   16   16    1    1
 -2.544214421800698   16   16    2    2
 -2.5377687063268   16   16    3    3
 -2.534865085441401   16   16    4    4
 -2.530388790733905   16   16    5    5
 -1.967302171629302   16   16    6    6
 -1.955986754675433   16   16    7    7
 -1.951731910347534   16   16    8    8
 -1.944943901487634   16   16    9    9
 -1.938746672104699   16   16   10   10
 -1.891087259209165   16   16   11   11
 -1.828083841635747   16   16   12   12
 -1.728124650177784   16   16   13   13
 -1.725837687421827   16   16   14   14
 -1.6740615277369   16   16   15   15
 -1.483947603592477   16   16   16   16
 -2.500420447177862   17   17    1    1
 -2.492603490372429   17   17    2    2
 -2.486288530143247   17   17    3    3
 -2.483443810967203   17   17    4    4
 -2.479058320610638   17   17    5    5
 -1.927394254824562   17   17    6    6
 -1.916308377961137   17   17    7    7
 -1.912139845729012   17   17    8    8
 -1.905489535742604   17   17    9    9
 -1.899418020913437   17   17   10   10
 -1.852725408091744   17   17   11   11
 -1.791000053026055   17   17   12   12
 -1.693068594345548   17   17   13   13
 -1.690828024015074   17   17   14   14
 -1.640102175107501   17   17   15   15
 -1.45384482712997   17   17   16   16
 -1.424352703731329   17   17   17   17
 -2.380183795217886   18   18    1    1
 -2.372742729081506   18   18    2    2
 -2.366731433652407   18   18    3    3
 -2.364023507274502   18   18    4    4
 -2.359848900122908   18   18    5    5
 -1.834712469059868   18   18    6    6
 -1.824159674030582   18   18    7    7
 -1.8201915922306   18   18    8    8
 -1.813861072865072   18   18    9    9
 -1.808081516380833   18   18   10   10
 -1.763634191323956   18   18   11   11
 -1.704876997089985   18   18   12   12
 -1.611654726708826   18   18   13   13
 -1.609521897728541   18   18   14   14
 -1.561235281089828   18   18   15   15
 -1.383934410791496   18   18   16   16
 -1.355860462556415   18   18   17   17
 -1.290661778580411   18   18   18   18
 -2.373445470677823   19   19    1    1
 -2.366025470275379   19   19    2    2
 -2.360031192884798   19   19    3    3
 -2.357330932674019   19   19    4    4
 -2.353168143877744   19   19    5    5
 -1.82951837939374   19   19    6    6
 -1.818995459434545   19   19    7    7
 -1.81503861131451   19   19    8    8
 -1.808726013713711   19   19    9    9
 -1.802962819212681   19   19   10   10
 -1.758641324985243   19   19   11   11
 -1.70005047296594   19   19   12   12
 -1.607092115780666   19   19   13   13
 -1.604965324860922   19   19   14   14
 -1.556815408125179   19   19   15   15
 -1.380016478394506   19   19   16   16
 -1.3520220077925   19   19   17   17
 -1.287007901954159   19   19   18   18
 -1.28336436948981   19   19   19   19
 -2.292966750719494   20   20    1    1
 -2.285798347474793   20   20    2    2
 -2.280007323867554   20   20    3    3
 -2.277398624001431   20   20    4    4
 -2.273376986926532   20   20    5    5
 -1.767483123419734   20   20    6    6
 -1.757317014324324   20   20    7    7
 -1.753494334895209   20   20    8    8
 -1.747395784670177   20   20    9    9
 -1.741828008400593   20   20   10   10
 -1.699009366109773   20   20   11   11
 -1.642405210995891   20   20   12   12
 -1.552598883081196   20   20   13   13
 -1.550544207326074   20   20   14   14
 -1.504026956565962   20   20   15   15
 -1.333222919800184   20   20   16   16
 -1.306177684892781   20   20   17   17
 -1.243368075463456   20   20   18   18
 -1.23984808779189   20   20   19   19
 -1.197807354907568   20   20   20   20
 -2.259648313854719   21   21    1    1
 -2.252584072604889   21   21    2    2
 -2.246877196687266   21   21    3    3
 -2.244306403084617   21   21    4    4
 -2.240343203255235   21   21    5    5
 -1.741800337204566   21   21    6    6
 -1.731781948900986   21   21    7    7
 -1.728014815721364   21   21    8    8
 -1.722004881766313   21   21    9    9
 -1.716518009243831   21   21   10   10
 -1.674321552263528   21   21   11   11
 -1.618539895761043   21   21   12   12
 -1.530038517630615   21   21   13   13
 -1.528013697774802   21   21   14   14
 -1.482172375735456   21   21   15   15
 -1.313850243041529   21   21   16   16
 -1.287197994622688   21   21   17   17
 -1.225301053467168   21   21   18   18
 -1.221832213718686   21   21   19   19
 -1.18040236256822   21   21   20   20
 -1.163250277140064   21   21   21   21
 -2.233625743339159   22   22    1    1
 -2.226642855331307   22   22    2    2
 -2.221001700959855   22   22    3    3
 -2.218460513140281   22   22    4    4
 -2.214542954327864   22   22    5    5
 -1.721741409529396   22   22    6    6
 -1.711838395027342   22   22    7    7
 -1.708114644921186   22   22    8    8
 -1.702173922590431   22   22    9    9
 -1.696750238010184   22   22   10   10
 -1.65503972402842   22   22   11   11
 -1.599900460450935   22   22   12   12
 -1.5124182822283   22   22   13   13
 -1.510416780610619   22   22   14   14
 -1.465103376578682   22   22   15   15
 -1.298719675870166   22   22   16   16
 -1.272374360176044   22   22   17   17
 -1.211190236809931   22   22   18   18
 -1.207761344926968   22   22   19   19
 -1.166808608386064   22   22   20   20
 -1.149854049869422   22   22   21   21
 -1.136612096282279   22   22   22   22
 -2.14954590712362   23   23    1    1
 -2.142825874288245   23   23    2    2
 -2.137397068532954   23   23    3    3
 -2.1349515380348   23   23    4    4
 -2.131181446945789   23   23    5    5
 -1.656930312079236   23   23    6    6
 -1.647400074368395   23   23    7    7
 -1.643816496491166   23   23    8    8
 -1.638099399341157   23   23    9    9
 -1.632879877214065   23   23   10   10
 -1.59273946207026   23   23   11   11
 -1.539675792519423   23   23   12   12
 -1.455486684874377   23   23   13   13
 -1.453560525300323   23   23   14   14
 -1.409952842829277   23   23   15   15
 -1.249832283717434   23   23   16   16
 -1.224478678400583   23   23   17   17
 -1.165597694263122   23   23   18   18
 -1.162297875331964   23   23   19   19
 -1.122886712795212   23   23   20   20
 -1.106570370643795   23   23   21   21
 -1.093826880728152   23   23   22   22
 -1.052652218744589   23   23   23   23
 -2.111023466369768   24   24    1    1
 -2.104423864582599   24   24    2    2
 -2.099092349537583   24   24    3    3
 -2.096690645879049   24   24    4    4
 -2.092988119344083   24   24    5    5
 -1.627236133616331   24   24    6    6
 -1.617876689195538   24   24    7    7
 -1.6143573333319   24   24    8    8
 -1.608742693419727   24   24    9    9
 -1.603616711389285   24   24   10   10
 -1.564195660628016   24   24   11   11
 -1.512082955678437   24   24   12   12
 -1.429402617816176   24   24   13   13
 -1.427510977331864   24   24   14   14
 -1.384684796832391   24   24   15   15
 -1.227433790183428   24   24   16   16
 -1.202534551882177   24   24   17   17
 -1.144708785600472   24   24   18   18
 -1.14146810338226   24   24   19   19
 -1.102763236146684   24   24   20   20
 -1.086739302415931   24   24   21   21
 -1.07422419112372   24   24   22   22
 -1.033787428466505   24   24   23   23
 -1.015260717856044   24   24   24   24
 -1.906611473456113   25   25    1    1
 -1.900650916082824   25   25    2    2
 -1.895835655656935   25   25    3    3
 -1.89366651077335   25   25    4    4
 -1.890322502672635   25   25    5    5
 -1.469669632668983   25   25    6    6
 -1.461216470303837   25   25    7    7
 -1.458037896320324   25   25    8    8
 -1.452966926221501   25   25    9    9
 -1.448337296893516   25   25   10   10
 -1.412733416181389   25   25   11   11
 -1.36566682371922   25   25   12   12
 -1.290992485272144   25   25   13   13
 -1.289284013761288   25   25   14   14
 -1.250604724589286   25   25   15   15
 -1.108580451403438   25   25   16   16
 -1.086092225108577   25   25   17   17
 -1.033865771347889   25   25   18   18
 -1.030938886830734   25   25   19   19
 -0.9959818410538587   25   25   20   20
 -0.9815095169003563   25   25   21   21
 -0.9702062532647591   25   25   22   22
 -0.933685012804913   25   25   23   23
 -0.9169522575428181   25   25   24   24
 -0.82816307951756   25   25   25   25
 -1.796337993511266   26   26    1    1
 -1.790722179371255   26   26    2    2
 -1.786185421163252   26   26    3    3
 -1.784141734013531   26   26    4    4
 -1.780991134698697   26   26    5    5
 -1.384667739509337   26   26    6    6
 -1.376703486208004   26   26    7    7
 -1.373708752728603   26   26    8    8
 -1.36893107443426   26   26    9    9
 -1.364569210901226   26   26   10   10
 -1.331024566630464   26   26   11   11
 -1.28668018423165   26   26   12   12
 -1.216324816522861   26   26   13   13
 -1.214715158588609   26   26   14   14
 -1.178272979534831   26   26   15   15
 -1.044463023245152   26   26   16   16
 -1.023275457837864   26   26   17   17
 -0.9740696471822597   26   26   18   18
 -0.971312046100979   26   26   19   19
 -0.9383768255045744   26   26   20   20
 -0.9247415431760659   26   26   21   21
 -0.9140920310956149   26   26   22   22
 -0.8796830847940063   26   26   23   23
 -0.8639181088500918   26   26   24   24
 -0.7802642674042048   26   26   25   25
 -0.7351357987879384   26   26   26   26
 -1.734738719617349   27   27    1    1
 -1.729315480635575   27   27    2    2
 -1.724934295049458   27   27    3    3
 -1.722960689167819   27   27    4    4
 -1.719918128891755   27   27    5    5
 -1.337185290412225   27   27    6    6
 -1.329494143966195   27   27    7    7
 -1.326602104639288   27   27    8    8
 -1.321988260498035   27   27    9    9
 -1.317775972171576   27   27   10   10
 -1.285381626863245   27   27   11   11
 -1.242557883546222   27   27   12   12
 -1.174615112788038   27   27   13   13
 -1.173060652572882   27   27   14   14
 -1.137868133536837   27   27   15   15
 -1.008646732506243   27   27   16   16
 -0.9881857222625068   27   27   17   17
 -0.9406672567605957   27   27   18   18
 -0.9380042181864321   27   27   19   19
 -0.9061983984497781   27   27   20   20
 -0.8930306915407114   27   27   21   21
 -0.8827463680906014   27   27   22   22
 -0.8495173590364874   27   27   23   23
 -0.8342929890779767   27   27   24   24
 -0.7535077703022761   27   27   25   25
 -0.709926828325622   27   27   26   26
 -0.6855823133731824   27   27   27   27
 -1.719053223558964   28   28    1    1
 -1.713679021468285   28   28    2    2
 -1.709337450533335   28   28    3    3
 -1.707381689983057   28   28    4    4
 -1.704366640516936   28   28    5    5
 -1.325094469837978   28   28    6    6
 -1.317472866687373   28   28    7    7
 -1.314606977160981   28   28    8    8
 -1.310034851368015   28   28    9    9
 -1.305860650524815   28   28   10   10
 -1.273759214673049   28   28   11   11
 -1.231322683360583   28   28   12   12
 -1.163994250687364   28   28   13   13
 -1.162453845891219   28   28   14   14
 -1.127579537380125   28   28   15   15
 -0.9995265554051526   28   28   16   16
 -0.9792505534810547   28   28   17   17
 -0.9321617496307238   28   28   18   18
 -0.9295227902337793   28   28   19   19
 -0.8980045585093551   28   28   20   20
 -0.8849559139192902   28   28   21   21
 -0.8747645812539686   28   28   22   22
 -0.841836028680504   28   28   23   23
 -0.8267493173747201   28   28   24   24
 -0.7466945580142342   28   28   25   25
 -0.7035076746274215   28   28   26   26
 -0.6793832826185766   28   28   27   27
 -0.6732403034591576   28   28   28   28
 -1.714381092045682   29   29    1    1
 -1.709021496238626   29   29    2    2
 -1.704691725049085   29   29    3    3
 -1.702741279965701   29   29    4    4
 -1.699734424956524   29   29    5    5
 -1.321493059744469   29   29    6    6
 -1.31389217098   29   29    7    7
 -1.311034070515974   29   29    8    8
 -1.306474371082302   29   29    9    9
 -1.302311515097442   29   29   10   10
 -1.270297326183706   29   29   11   11
 -1.227976131064758   29   29   12   12
 -1.160830687078404   29   29   13   13
 -1.159294468873862   29   29   14   14
 -1.124514943557126   29   29   15   15
 -0.9968099905810557   29   29   16   16
 -0.976589095820747   29   29   17   17
 -0.9296282723501839   29   29   18   18
 -0.9269964852531958   29   29   19   19
 -0.8955639154045441   29   29   20   20
 -0.882550735093746   29   29   21   21
 -0.8723871009579728   29   29   22   22
 -0.8395480433030231   29   29   23   23
 -0.8245023354393418   29   29   24   24
 -0.744665153032769   29   29   25   25
 -0.7015956451850418   29   29   26   26
 -0.6775368196930439   29   29   27   27
 -0.6714105362392162   29   29   28   28
 -0.6695857420549975   29   29   29   29
 -1.705471862744015   30   30    1    1
 -1.700140119476999   30   30    2    2
 -1.695832849074786   30   30    3    3
 -1.693892539988917   30   30    4    4
 -1.690901310887467   30   30    5    5
 -1.314625575761794   30   30    6    6
 -1.307064187001853   30   30    7    7
 -1.304220939403692   30   30    8    8
 -1.299684935639547   30   30    9    9
 -1.295543713023541   30   30   10   10
 -1.263695894207599   30   30   11   11
 -1.221594632237344   30   30   12   12
 -1.154798127095342   30   30   13   13
 -1.153269892250104   30   30   14   14
 -1.118671107824345   30   30   15   15
 -0.9916298070049046   30   30   16   16
 -0.971513995407809   30   30   17   17
 -0.9247972161269743   30   30   18   18
 -0.922179105799305   30   30   19   19
 -0.8909098835130018   30   30   20   20
 -0.87796432959395   30   30   21   21
 -0.867853513438656   30   30   22   22
 -0.8351851125274469   30   30   23   23
 -0.8202175936160268   30   30   24   24
 -0.7407953059887765   30   30   25   25
 -0.6979496200923679   30   30   26   26
 -0.6740158225734568   30   30   27   27
 -0.6679213759523558   30   30   28   28
 -0.6661060647879226   30   30   29   29
 -0.6626444705729833   30   30   30   30
 -1.695253888760692   31   31    1    1
 -1.689954089505874   31   31    2    2
 -1.685672625203351   31   31    3    3
 -1.683743941069023   31   31    4    4
 -1.680770633284134   31   31    5    5
 -1.306749274648662   31   31    6    6
 -1.299233188350354   31   31    7    7
 -1.296406975468872   31   31    8    8
 -1.291898148211981   31   31    9    9
 -1.287781736855471   31   31   10   10
 -1.256124727510617   31   31   11   11
 -1.214275706347658   31   31   12   12
 -1.147879398339732   31   31   13   13
 -1.14636031959037   31   31   14   14
 -1.111968826464361   31   31   15   15
 -0.9856886667314078   31   31   16   16
 -0.9656933747652967   31   31   17   17
 -0.9192564891876089   31   31   18   18
 -0.9166540647142759   31   31   19   19
 -0.8855721853603188   31   31   20   20
 -0.872704191989778   31   31   21   21
 -0.8626539526511892   31   31   22   22
 -0.8301812775551513   31   31   23   23
 -0.815303433367878   31   31   24   24
 -0.7363569875802964   31   31   25   25
 -0.6937680025497015   31   31   26   26
 -0.6699775993169775   31   31   27   27
 -0.6639196662839207   31   31   28   28
 -0.6621152311724173   31   31   29   29
 -0.6586743763671405   31   31   30   30
 -0.6547280681411154   31   31   31   31
 -1.634479002031502   32   32    1    1
 -1.629369200688817   32   32    2    2
 -1.625241226969472   32   32    3    3
 -1.623381686200971   32   32    4    4
 -1.620514971561236   32   32    5    5
 -1.259902286314495   32   32    6    6
 -1.252655651864346   32   32    7    7
 -1.249930758772711   32   32    8    8
 -1.245583573065582   32   32    9    9
 -1.241614735140745   32   32   10   10
 -1.211092630231076   32   32   11   11
 -1.170743897336304   32   32   12   12
 -1.10672789833411   32   32   13   13
 -1.105263278589111   32   32   14   14
 -1.072104721198002   32   32   15   15
 -0.9503517077850162   32   32   16   16
 -0.9310732474465534   32   32   17   17
 -0.8863011251705463   32   32   18   18
 -0.8837919976680308   32   32   19   19
 -0.8538244043272728   32   32   20   20
 -0.8414177287833485   32   32   21   21
 -0.8317277907314599   32   32   22   22
 -0.8004192617045388   32   32   23   23
 -0.7860747885369402   32   32   24   24
 -0.7099585744522454   32   32   25   25
 -0.6688964054096896   32   32   26   26
 -0.6459588886214661   32   32   27   27
 -0.6401181326120621   32   32   28   28
 -0.6383783865363657   32   32   29   29
 -0.6350608864465263   32   32   30   30
 -0.6312560534514534   32   32   31   31
 -0.6086255109704839   32   32   32   32
 -0.8883813316341554   33   33    1    1
 -0.8856040233202778   33   33    2    2
 -0.8833603635453989   33   33    3    3
 -0.8823496553612646   33   33    4    4
 -0.8807915223011901   33   33    5    5
 -0.684789262788838   33   33    6    6
 -0.6808505307802364   33   33    7    7
 -0.6793694813753193   33   33    8    8
 -0.6770066742529519   33   33    9    9
 -0.6748495088710019   33   33   10   10
 -0.6582599606600874   33   33   11   11
 -0.6363293876675579   33   33   12   12
 -0.6015350474718284   33   33   13   13
 -0.6007389890105193   33   33   14   14
 -0.5827164611385991   33   33   15   15
 -0.5165405701960645   33   33   16   16
 -0.506062231688165   33   33   17   17
 -0.4817274329185202   33   33   18   18
 -0.480363657654871   33   33   19   19
 -0.4640755007285085   33   33   20   20
 -0.4573321538105211   33   33   21   21
 -0.4520654235195293   33   33   22   22
 -0.4350484335956007   33   33   23   23
 -0.4272518438820696   33   33   24   24
 -0.3858807259029055   33   33   25   25
 -0.3635623820340196   33   33   26   26
 -0.3510952523349682   33   33   27   27
 -0.3479206513795963   33   33   28   28
 -0.3469750546888395   33   33   29   29
 -0.3451719081547789   33   33   30   30
 -0.34310388366587   33   33   31   31
 -0.3308036023897821   33   33   32   32
 -0.1798002571064821   33   33   33   33
 -0.5828584374405114   34   34    1    1
 -0.5810362721985429   34   34    2    2
 -0.5795642286244975   34   34    3    3
 -0.5789011127170198   34   34    4    4
 -0.5778788366196047   34   34    5    5
 -0.4492836414638998   34   34    6    6
 -0.4466994773191991   34   34    7    7
 -0.4457277750656924   34   34    8    8
 -0.4441775600642323   34   34    9    9
 -0.442762264628531   34   34   10   10
 -0.4318780217884983   34   34   11   11
 -0.4174895840181009   34   34   12   12
 -0.3946613524511999   34   34   13   13
 -0.3941390661600004   34   34   14   14
 -0.3823146591625768   34   34   15   15
 -0.3388972943243844   34   34   16   16
 -0.3320225573255185   34   34   17   17
 -0.3160567301731021   34   34   18   18
 -0.3151619703544458   34   34   19   19
 -0.3044754674341041   34   34   20   20
 -0.300051222453058   34   34   21   21
 -0.2965957714226077   34   34   22   22
 -0.2854310881905129   34   34   23   23
 -0.2803158207530101   34   34   24   24
 -0.253172628610345   34   34   25   25
 -0.238529778101825   34   34   26   26
 -0.2303502143525613   34   34   27   27
 -0.2282673892340488   34   34   28   28
 -0.227646992350416   34   34   29   29
 -0.226463965271959   34   34   30   30
 -0.2251071543178422   34   34   31   31
 -0.2170370582122975   34   34   32   32
 -0.1179652173866743   34   34   33   33
 -0.07739584323755472   34   34   34   34
 -2.194717079655451    1    1  0  0
 -2.181016030629436    2    2  0  0
 -2.169978910043859    3    3  0  0
 -2.165016131915405    4    4  0  0
 -2.15737651948463    5    5  0  0
 -1.304048008544183    6    6  0  0
 -1.289090051159381    7    7  0  0
 -1.283487853832249    8    8  0  0
 -1.274575588375281    9    9  0  0
 -1.266466096746793   10   10  0  0
 -1.204965395437686   11   11  0  0
 -1.126013655724553   12   12  0  0
 -1.006239977517501   13   13  0  0
 -1.003578467364634   14   14  0  0
 -0.9442658190438449   15   15  0  0
 -0.7419738017962387   16   16  0  0
 -0.7121763518656647   17   17  0  0
 -0.6453308892902055   18   18  0  0
 -0.641682184744905   19   19  0  0
 -0.5989036774537838   20   20  0  0
 -0.5816251385700322   21   21  0  0
 -0.5683060481411396   22   22  0  0
 -0.5263261093722943   23   23  0  0
 -0.5076303589280222   24   24  0  0
 -0.41408153975878   25   25  0  0
 -0.3675678993939692   26   26  0  0
 -0.3427911566865912   27   27  0  0
 -0.3366201517295788   28   28  0  0
 -0.3347928710274988   29   29  0  0
 -0.3313222352864916   30   30  0  0
 -0.3273640340705577   31   31  0  0
 -0.3043127554852419   32   32  0  0
 -0.08990012855324105   33   33  0  0
 -0.03869792161877736   34   34  0  0
 -1507.525021623724  0  0  0  0
