 &FCI NORB=  36,NELEC=52,MS2=0,
  ORBSYM=1,1,1,1,1,1,1,1,1,1,1,1,1,1,1,1,1,1,1,1,1,1,1,1,1,1,1,1,1,1,1,1,1,1,1,1,
  ISYM=1,
 &END
 -0.7040779291601561    1    1    1    1
 -0.7028144211827428    2    2    1    1
 -0.7015531806424169    2    2    2    2
 -0.6937355574618135    3    3    1    1
 -0.6924906094599441    3    3    2    2
 -0.683545107373163    3    3    3    3
 -0.6917575089275185    4    4    1    1
 -0.6905161106464958    4    4    2    2
 -0.6815961148741899    4    4    3    3
 -0.6796526795384822    4    4    4    4
 -0.6750452467127419    5    5    1    1
 -0.6738338395388885    5    5    2    2
 -0.665129343137934    5    5    3    3
 -0.663232859516532    5    5    4    4
 -0.6472097281234505    5    5    5    5
 -0.6748100015990095    6    6    1    1
 -0.673599016585922    6    6    2    2
 -0.6648975535968104    6    6    3    3
 -0.6630017308770402    6    6    4    4
 -0.6469841833516851    6    6    5    5
 -0.6467587171795479    6    6    6    6
 -0.6404501067277065    7    7    1    1
 -0.639300782504533    7    7    2    2
 -0.6310423795661377    7    7    3    3
 -0.6292430881206397    7    7    4    4
 -0.6140411201625156    7    7    5    5
 -0.613827134249938    7    7    6    6
 -0.5825723577172779    7    7    7    7
 -0.6376945900143872    8    8    1    1
 -0.6365502107230244    8    8    2    2
 -0.628327339307043    8    8    3    3
 -0.6265357892571636    8    8    4    4
 -0.6113992272945167    8    8    5    5
 -0.6111861620496886    8    8    6    6
 -0.5800658582233363    8    8    7    7
 -0.5775701428656997    8    8    8    8
 -0.6324301412780365    9    9    1    1
 -0.6312952093400129    9    9    2    2
 -0.6231402213367385    9    9    3    3
 -0.6213634613188649    9    9    4    4
 -0.6063518583189326    9    9    5    5
 -0.6061405520212189    9    9    6    6
 -0.5752771599622218    9    9    7    7
 -0.5728020478302775    9    9    8    8
 -0.5680733155121767    9    9    9    9
 -0.629591222858187   10   10    1    1
 -0.6284613855210907   10   10    2    2
 -0.6203430044790362   10   10    3    3
 -0.6185742201669571   10   10    4    4
 -0.603630002817212   10   10    5    5
 -0.6034196450532597   10   10    6    6
 -0.5726947958095028   10   10    7    7
 -0.5702307942192041   10   10    8    8
 -0.5655232887282325   10   10    9    9
 -0.5629847087706423   10   10   10   10
 -0.6287549922988073   11   11    1    1
 -0.627626655625116   11   11    2    2
 -0.6195190575134355   11   11    3    3
 -0.6177526225217423   11   11    4    4
 -0.6028282542594371   11   11    5    5
 -0.6026181758951719   11   11    6    6
 -0.5719341357620523   11   11    7    7
 -0.5694734068880072   11   11    8    8
 -0.564772153961886   11   11    9    9
 -0.5622369457764247   11   11   10   10
 -0.5614901759699203   11   11   11   11
 -0.6270709607538416   12   12    1    1
 -0.6259456461707502   12   12    2    2
 -0.6178597631168287   12   12    3    3
 -0.6160980592720601   12   12    4    4
 -0.6012136638246831   12   12    5    5
 -0.6010041481256797   12   12    6    6
 -0.5704022908652913   12   12    7    7
 -0.5679481527063869   12   12    8    8
 -0.5632594914229966   12   12    9    9
 -0.5607310734350045   12   12   10   10
 -0.5599863037460761   12   12   11   11
 -0.5584864594318237   12   12   12   12
 -0.6268571158740295   13   13    1    1
 -0.6257321850477644   13   13    2    2
 -0.6176490594563918   13   13    3    3
 -0.6158879563910733   13   13    4    4
 -0.6010086368473097   13   13    5    5
 -0.6007991925977311   13   13    6    6
 -0.570207771238377   13   13    7    7
 -0.567754469994132   13   13    8    8
 -0.5630674076465424   13   13    9    9
 -0.5605398519042522   13   13   10   10
 -0.559795336198038   13   13   11   11
 -0.5582960033634222   13   13   12   12
 -0.5581056122446957   13   13   13   13
 -0.6260627148305801   14   14    1    1
 -0.6249392096022696   14   14    2    2
 -0.616866327562803   14   14    3    3
 -0.6151074563013156   14   14    4    4
 -0.6002469929636507   14   14    5    5
 -0.6000378141377647   14   14    6    6
 -0.5694851605556807   14   14    7    7
 -0.567034968321478   14   14    8    8
 -0.5623538457759987   14   14    9    9
 -0.5598294931447017   14   14   10   10
 -0.5590859209454508   14   14   11   11
 -0.5575884881795081   14   14   12   12
 -0.5573983383388966   14   14   13   13
 -0.5566919607444173   14   14   14   14
 -0.6253077475351478   15   15    1    1
 -0.6241855971386834   15   15    2    2
 -0.6161224501653296   15   15    3    3
 -0.6143656999218294   15   15    4    4
 -0.5995231567757829   15   15    5    5
 -0.5993142301980643   15   15    6    6
 -0.5687984199763925   15   15    7    7
 -0.5663511824222252   15   15    8    8
 -0.5616757048294702   15   15    9    9
 -0.5591543963080261   15   15   10   10
 -0.5584117207804328   15   15   11   11
 -0.556916093764519   15   15   12   12
 -0.5567261732250742   15   15   13   13
 -0.5560206474493813   15   15   14   14
 -0.5553501436891903   15   15   15   15
 -0.6250760279448201   16   16    1    1
 -0.6239542933823687   16   16    2    2
 -0.615894134360341   16   16    3    3
 -0.6141380351138073   16   16    4    4
 -0.5993009921523191   16   16    5    5
 -0.599092142996288   16   16    6    6
 -0.5685876409841674   16   16    7    7
 -0.5661413103000743   16   16    8    8
 -0.5614675652938044   16   16    9    9
 -0.5589471910908299   16   16   10   10
 -0.5582047907756734   16   16   11   11
 -0.5567097179925846   16   16   12   12
 -0.5565198678317811   16   16   13   13
 -0.5558146035019832   16   16   14   14
 -0.5551443482096182   16   16   15   15
 -0.554938628991446   16   16   16   16
 -0.6233667243000717   17   17    1    1
 -0.6222480571804437   17   17    2    2
 -0.6142099390919629   17   17    3    3
 -0.6124586419922214   17   17    4    4
 -0.5976621717138593   17   17    5    5
 -0.5974538936669533   17   17    6    6
 -0.5670328078380481   17   17    7    7
 -0.5645931667753253   17   17    8    8
 -0.5599322023733606   17   17    9    9
 -0.557418720267697   17   17   10   10
 -0.5566783500856889   17   17   11   11
 -0.5551873656586449   17   17   12   12
 -0.5549980346532036   17   17   13   13
 -0.5542946989062271   17   17   14   14
 -0.5536262764626083   17   17   15   15
 -0.5534211197945799   17   17   16   16
 -0.5519077603073255   17   17   17   17
 -0.6214752406580712   18   18    1    1
 -0.6203599679136564   18   18    2    2
 -0.6123462399125578   18   18    3    3
 -0.6106002567791982   18   18    4    4
 -0.5958486834778478   18   18    5    5
 -0.5956410374096847   18   18    6    6
 -0.565312258378647   18   18    7    7
 -0.5628800199265908   18   18    8    8
 -0.5582331983037936   18   18    9    9
 -0.555727342864909   18   18   10   10
 -0.5549892191905083   18   18   11   11
 -0.553502758862272   18   18   12   12
 -0.5533140023445051   18   18   13   13
 -0.5526128007314314   18   18   14   14
 -0.5519464064841677   18   18   15   15
 -0.5517418723236722   18   18   16   16
 -0.5502331048279421   18   18   17   17
 -0.5485635307610272   18   18   18   18
 -0.6210713403666573   19   19    1    1
 -0.6199567924443384   19   19    2    2
 -0.6119482726106182   19   19    3    3
 -0.6102034242016213   19   19    4    4
 -0.5954614380316084   19   19    5    5
 -0.5952539269138053   19   19    6    6
 -0.5649448587286507   19   19    7    7
 -0.5625142010021896   19   19    8    8
 -0.5578703993751781   19   19    9    9
 -0.5553661725059866   19   19   10   10
 -0.5546285285423573   19   19   11   11
 -0.5531430342731376   19   19   12   12
 -0.5529544004293045   19   19   13   13
 -0.5522536545311448   19   19   14   14
 -0.5515876933772902   19   19   15   15
 -0.5513832921447083   19   19   16   16
 -0.5498755052055496   19   19   17   17
 -0.5482070162043107   19   19   18   18
 -0.5478507333484312   19   19   19   19
 -0.620843475277431   20   20    1    1
 -0.6197293362720034   20   20    2    2
 -0.6117237546870282   20   20    3    3
 -0.6099795464460968   20   20    4    4
 -0.5952429689687343   20   20    5    5
 -0.5950355339847604   20   20    6    6
 -0.5647375859046203   20   20    7    7
 -0.5623078199630536   20   20    8    8
 -0.5576657221021045   20   20    9    9
 -0.555162414009617   20   20   10   10
 -0.554425040680449   20   20   11   11
 -0.5529400914247602   20   20   12   12
 -0.5527515267888665   20   20   13   13
 -0.5520510379876234   20   20   14   14
 -0.5513853211684979   20   20   15   15
 -0.5511809949287583   20   20   16   16
 -0.5496737611820964   20   20   17   17
 -0.548005884333392   20   20   18   18
 -0.5476497321942586   20   20   19   19
 -0.5474488047854724   20   20   20   20
 -0.6195749082837226   21   21    1    1
 -0.6184630457940755   21   21    2    2
 -0.610473821981983   21   21    3    3
 -0.6087331776747846   21   21    4    4
 -0.5940267113873314   21   21    5    5
 -0.5938197002544319   21   21    6    6
 -0.5635836598506098   21   21    7    7
 -0.5611588586400882   21   21    8    8
 -0.5565262459591602   21   21    9    9
 -0.5540280528661012   21   21   10   10
 -0.5532921862089121   21   21   11   11
 -0.5518102711441072   21   21   12   12
 -0.5516220918015811   21   21   13   13
 -0.5509230343063081   21   21   14   14
 -0.5502586777437006   21   21   15   15
 -0.5500547690029507   21   21   16   16
 -0.5485506149809842   21   21   17   17
 -0.5468861460983843   21   21   18   18
 -0.5465307216834945   21   21   19   19
 -0.5463302048288802   21   21   20   20
 -0.5452138905031122   21   21   21   21
 -0.619401474483991   22   22    1    1
 -0.6182899232311836   22   22    2    2
 -0.6103029357934567   22   22    3    3
 -0.6085627787341313   22   22    4    4
 -0.5938604291374847   22   22    5    5
 -0.5936534759519405   22   22    6    6
 -0.5634258993372518   22   22    7    7
 -0.5610017768864441   22   22    8    8
 -0.5563704609843386   22   22    9    9
 -0.5538729671951326   22   22   10   10
 -0.5531373065245784   22   22   11   11
 -0.5516558062831584   22   22   12   12
 -0.5514676796165201   22   22   13   13
 -0.5507688178041193   22   22   14   14
 -0.5501046472107651   22   22   15   15
 -0.5499007955489369   22   22   16   16
 -0.54839706257557   22   22   17   17
 -0.5467330596175241   22   22   18   18
 -0.5463777346944083   22   22   19   19
 -0.546177273969246   22   22   20   20
 -0.5450612721264927   22   22   21   21
 -0.5449086964713983   22   22   22   22
 -0.6192220257937417   23   23    1    1
 -0.6181107965718378   23   23    2    2
 -0.6101261230686006   23   23    3    3
 -0.6083864701554841   23   23    4    4
 -0.5936883800213789   23   23    5    5
 -0.5934814867928733   23   23    6    6
 -0.5632626675015949   23   23    7    7
 -0.5608392473506958   23   23    8    8
 -0.556209273201245   23   23    9    9
 -0.5537125029685815   23   23   10   10
 -0.5529770554285238   23   23   11   11
 -0.551495984397057   23   23   12   12
 -0.5513079122331691   23   23   13   13
 -0.5506092528901556   23   23   14   14
 -0.5499452747156897   23   23   15   15
 -0.5497414821123481   23   23   16   16
 -0.5482381847900469   23   23   17   17
 -0.5465746639153729   23   23   18   18
 -0.5462194419345243   23   23   19   19
 -0.54601903928545   23   23   20   20
 -0.5449033607629942   23   23   21   21
 -0.5447508293110582   23   23   22   22
 -0.5445930078868946   23   23   23   23
 -0.6185657009808746   24   24    1    1
 -0.6174556495712589   24   24    2    2
 -0.609479439170309   24   24    3    3
 -0.607741630147308   24   24    4    4
 -0.5930591187892393   24   24    5    5
 -0.5928524448506715   24   24    6    6
 -0.5626656550416955   24   24    7    7
 -0.5602448035183819   24   24    8    8
 -0.555619736763679   24   24    9    9
 -0.5531256129037019   24   24   10   10
 -0.552390944878017   24   24   11   11
 -0.5509114436609739   24   24   12   12
 -0.5507235708382312   24   24   13   13
 -0.5500256520171038   24   24   14   14
 -0.5493623776053158   24   24   15   15
 -0.5491588010055024   24   24   16   16
 -0.5476570970556794   24   24   17   17
 -0.5459953393773732   24   24   18   18
 -0.5456404939028349   24   24   19   19
 -0.5454403036642138   24   24   20   20
 -0.5443258076699417   24   24   21   21
 -0.5441734378888966   24   24   22   22
 -0.544015783742563   24   24   23   23
 -0.5434391714087172   24   24   24   24
 -0.6183634855809509   25   25    1    1
 -0.6172537970583969   25   25    2    2
 -0.6092801941615061   25   25    3    3
 -0.6075429532458961   25   25    4    4
 -0.5928652417496715   25   25    5    5
 -0.5926586353749098   25   25    6    6
 -0.5624817139336173   25   25    7    7
 -0.5600616538112142   25   25    8    8
 -0.5554380990377318   25   25    9    9
 -0.5529447905321349   25   25   10   10
 -0.5522103626768771   25   25   11   11
 -0.5507313451237841   25   25   12   12
 -0.5505435337185722   25   25   13   13
 -0.5498458430541844   25   25   14   14
 -0.5491827854735272   25   25   15   15
 -0.5489792754249685   25   25   16   16
 -0.547478062397394   25   25   17   17
 -0.5458168479645231   25   25   18   18
 -0.5454621184925685   25   25   19   19
 -0.5452619936981664   25   25   20   20
 -0.5441478620439358   25   25   21   21
 -0.5439955420741173   25   25   22   22
 -0.5438379394665226   25   25   23   23
 -0.5432615156330957   25   25   24   24
 -0.5430839179349487   25   25   25   25
 -0.616191267085861   26   26    1    1
 -0.6150854767332163   26   26    2    2
 -0.6071398839114497   26   26    3    3
 -0.6054087456635024   26   26    4    4
 -0.5907825947738162   26   26    5    5
 -0.5905767141763666   26   26    6    6
 -0.5605057997494082   26   26    7    7
 -0.558094240936477   26   26    8    8
 -0.553486928019809   26   26    9    9
 -0.5510023781343054   26   26   10   10
 -0.5502705302143247   26   26   11   11
 -0.54879670822882   26   26   12   12
 -0.5486095565770014   26   26   13   13
 -0.5479143167956305   26   26   14   14
 -0.5472535884371437   26   26   15   15
 -0.547050793288966   26   26   16   16
 -0.5455548537983639   26   26   17   17
 -0.543899474963486   26   26   18   18
 -0.5435459916031432   26   26   19   19
 -0.5433465698172303   26   26   20   20
 -0.5422363519409664   26   26   21   21
 -0.5420845670484338   26   26   22   22
 -0.541927518075242   26   26   23   23
 -0.5413531191325811   26   26   24   24
 -0.5411761453086013   26   26   25   25
 -0.5392750744023262   26   26   26   26
 -0.6120509255031781   27   27    1    1
 -0.6109525652295095   27   27    2    2
 -0.6030603608118249   27   27    3    3
 -0.6013408545100869   27   27    4    4
 -0.5868129803470565   27   27    5    5
 -0.5866084831122805   27   27    6    6
 -0.5567396225995557   27   27    7    7
 -0.5543442676469608   27   27    8    8
 -0.5497679124057293   27   27    9    9
 -0.5473000568256382   27   27   10   10
 -0.546573126372907   27   27   11   11
 -0.5451092073619784   27   27   12   12
 -0.5449233132284139   27   27   13   13
 -0.5442327449351514   27   27   14   14
 -0.5435764561739839   27   27   15   15
 -0.5433750236565827   27   27   16   16
 -0.5418891357535459   27   27   17   17
 -0.5402448798186363   27   27   18   18
 -0.5398937716004512   27   27   19   19
 -0.5396956897788591   27   27   20   20
 -0.5385929317311979   27   27   21   21
 -0.5384421667189131   27   27   22   22
 -0.5382861729966296   27   27   23   23
 -0.5377156335825831   27   27   24   24
 -0.5375398488895139   27   27   25   25
 -0.5356515517490245   27   27   26   26
 -0.5320523764409686   27   27   27   27
 -0.6097265106605118   28   28    1    1
 -0.6086323216817735   28   28    2    2
 -0.6007700898633048   28   28    3    3
 -0.5990571138122426   28   28    4    4
 -0.584584412846294   28   28    5    5
 -0.5843806922403703   28   28    6    6
 -0.5546252661165441   28   28    7    7
 -0.5522390081171165   28   28    8    8
 -0.5476800327173407   28   28    9    9
 -0.5452215494294901   28   28   10   10
 -0.5444973796750333   28   28   11   11
 -0.543039020258798   28   28   12   12
 -0.5428538321042056   28   28   13   13
 -0.5421658864149191   28   28   14   14
 -0.5415120900727219   28   28   15   15
 -0.5413114225451504   28   28   16   16
 -0.5398311776691109   28   28   17   17
 -0.5381931662029882   28   28   18   18
 -0.5378433914051439   28   28   19   19
 -0.537646061848285   28   28   20   20
 -0.5365474917971892   28   28   21   21
 -0.5363972993523456   28   28   22   22
 -0.5362418980548234   28   28   23   23
 -0.5356735254053828   28   28   24   24
 -0.5354984082981836   28   28   25   25
 -0.5336172824333476   28   28   26   26
 -0.5300317758841463   28   28   27   27
 -0.5280188490579397   28   28   28   28
 -0.6081528368456137   29   29    1    1
 -0.6070614719142381   29   29    2    2
 -0.5992195321252664   29   29    3    3
 -0.5975109771802409   29   29    4    4
 -0.5830756295360567   29   29    5    5
 -0.5828724347228901   29   29    6    6
 -0.5531938058747662   29   29    7    7
 -0.5508137066886157   29   29    8    8
 -0.546266497777723   29   29    9    9
 -0.5438143597130287   29   29   10   10
 -0.5430920590047101   29   29   11   11
 -0.5416374635416341   29   29   12   12
 -0.541452753348463   29   29   13   13
 -0.5407665832128032   29   29   14   14
 -0.5401144742864655   29   29   15   15
 -0.5399143246718076   29   29   16   16
 -0.5384379002342111   29   29   17   17
 -0.536804116394258   29   29   18   18
 -0.5364552443477798   29   29   19   19
 -0.5362584240886981   29   29   20   20
 -0.5351626893922949   29   29   21   21
 -0.5350128845866856   29   29   22   22
 -0.5348578843721873   29   29   23   23
 -0.5342909786643014   29   29   24   24
 -0.534116313525651   29   29   25   25
 -0.5322400427531626   29   29   26   26
 -0.5286637902181315   29   29   27   27
 -0.526656058656002   29   29   28   28
 -0.5252967855483484   29   29   29   29
 -0.6034049244974656   30   30    1    1
 -0.6023220799654372   30   30    2    2
 -0.5945413630147088   30   30    3    3
 -0.5928461469355565   30   30    4    4
 -0.5785234975494042   30   30    5    5
 -0.5783218890992438   30   30    6    6
 -0.5488749643883808   30   30    7    7
 -0.5465134468837273   30   30    8    8
 -0.5420017385049863   30   30    9    9
 -0.5395687445367944   30   30   10   10
 -0.5388520829051098   30   30   11   11
 -0.5374088436198597   30   30   12   12
 -0.5372255754783472   30   30   13   13
 -0.5365447623441888   30   30   14   14
 -0.5358977444999543   30   30   15   15
 -0.5356991574741217   30   30   16   16
 -0.5342342596354221   30   30   17   17
 -0.5326132309155605   30   30   18   18
 -0.5322670825493762   30   30   19   19
 -0.5320717988864949   30   30   20   20
 -0.5309846187046483   30   30   21   21
 -0.530835983440712   30   30   22   22
 -0.5306821933289837   30   30   23   23
 -0.5301197135128272   30   30   24   24
 -0.5299464120030515   30   30   25   25
 -0.5280847894713168   30   30   26   26
 -0.5245364571111865   30   30   27   27
 -0.5225444001178464   30   30   28   28
 -0.5211957389964917   30   30   29   29
 -0.5171267097409202   30   30   30   30
 -0.6006748927856498   31   31    1    1
 -0.5995969474511442   31   31    2    2
 -0.591851433401741   31   31    3    3
 -0.5901638871202096   31   31    4    4
 -0.5759060388078205   31   31    5    5
 -0.5757053425104119   31   31    6    6
 -0.5463916468054988   31   31    7    7
 -0.5440408136976973   31   31    8    8
 -0.5395495179911908   31   31    9    9
 -0.5371275318063597   31   31   10   10
 -0.5364141126224936   31   31   11   11
 -0.5349774030967079   31   31   12   12
 -0.5347949641294659   31   31   13   13
 -0.5341172312509875   31   31   14   14
 -0.533473140759781   31   31   15   15
 -0.5332754522166356   31   31   16   16
 -0.5318171821288741   31   31   17   17
 -0.5302034875550083   31   31   18   18
 -0.5298589052947313   31   31   19   19
 -0.529664505168876   31   31   20   20
 -0.5285822438006692   31   31   21   21
 -0.5284342810187886   31   31   22   22
 -0.5282811867115936   31   31   23   23
 -0.5277212517665063   31   31   24   24
 -0.5275487343381959   31   31   25   25
 -0.5256955344897055   31   31   26   26
 -0.5221632561249504   31   31   27   27
 -0.5201802119496083   31   31   28   28
 -0.5188376526803935   31   31   29   29
 -0.5147870332495567   31   31   30   30
 -0.5124579423380542   31   31   31   31
 -0.5944023349934344   32   32    1    1
 -0.5933356461214326   32   32    2    2
 -0.5856710147343294   32   32    3    3
 -0.5840010906835672   32   32    4    4
 -0.5698921301948682   32   32    5    5
 -0.5696935296719613   32   32    6    6
 -0.5406859427334058   32   32    7    7
 -0.5383596582403467   32   32    8    8
 -0.5339152629657034   32   32    9    9
 -0.5315185684128328   32   32   10   10
 -0.5308125991209378   32   32   11   11
 -0.5293908924588298   32   32   12   12
 -0.5292103586136085   32   32   13   13
 -0.5285397029722496   32   32   14   14
 -0.5279023384069609   32   32   15   15
 -0.5277067142297922   32   32   16   16
 -0.5262636721522438   32   32   17   17
 -0.5246668286114329   32   32   18   18
 -0.5243258446572741   32   32   19   19
 -0.5241334745580419   32   32   20   20
 -0.5230625147225941   32   32   21   21
 -0.5229160970445819   32   32   22   22
 -0.5227646014272957   32   32   23   23
 -0.5222105136124033   32   32   24   24
 -0.5220397977002745   32   32   25   25
 -0.5202059499227459   32   32   26   26
 -0.516710557434939   32   32   27   27
 -0.514748221232152   32   32   28   28
 -0.5134196816609581   32   32   29   29
 -0.5094113608924749   32   32   30   30
 -0.50710659155246   32   32   31   31
 -0.5018111223385316   32   32   32   32
 -0.5797880368027767   33   33    1    1
 -0.5787475741219156   33   33    2    2
 -0.5712713895191169   33   33    3    3
 -0.5696425231267738   33   33    4    4
 -0.555880453192844   33   33    5    5
 -0.5556867355701072   33   33    6    6
 -0.5273923448966977   33   33    7    7
 -0.5251232556958783   33   33    8    8
 -0.520788132733938   33   33    9    9
 -0.5184503646132256   33   33   10   10
 -0.5177617526652334   33   33   11   11
 -0.5163750008542027   33   33   12   12
 -0.5161989057120151   33   33   13   13
 -0.5155447391739942   33   33   14   14
 -0.5149230451995913   33   33   15   15
 -0.5147322307445421   33   33   16   16
 -0.5133246680821665   33   33   17   17
 -0.5117670854027206   33   33   18   18
 -0.5114344850649962   33   33   19   19
 -0.5112468446813585   33   33   20   20
 -0.5102022160452753   33   33   21   21
 -0.5100593982717063   33   33   22   22
 -0.5099116274078326   33   33   23   23
 -0.5093711626964744   33   33   24   24
 -0.5092046440983515   33   33   25   25
 -0.5074158842968944   33   33   26   26
 -0.5040064314245681   33   33   27   27
 -0.5020923422839637   33   33   28   28
 -0.5007964669072195   33   33   29   29
 -0.4968866968871196   33   33   30   30
 -0.4946385938561225   33   33   31   31
 -0.4894733219203604   33   33   32   32
 -0.4774388653548507   33   33   33   33
 -0.5793285709695039   34   34    1    1
 -0.5782889328262708   34   34    2    2
 -0.5708186728910578   34   34    3    3
 -0.5691910973298576   34   34    4    4
 -0.555439933452156   34   34    5    5
 -0.5552463693452272   34   34    6    6
 -0.5269744011865343   34   34    7    7
 -0.5247071101755606   34   34    8    8
 -0.5203754226775443   34   34    9    9
 -0.5180395071728043   34   34   10   10
 -0.517351440930557   34   34   11   11
 -0.5159657880816227   34   34   12   12
 -0.5157898324899193   34   34   13   13
 -0.5151361843606175   34   34   14   14
 -0.5145149830613335   34   34   15   15
 -0.5143243198214129   34   34   16   16
 -0.5129178726131525   34   34   17   17
 -0.5113615242744972   34   34   18   18
 -0.5110291875132552   34   34   19   19
 -0.5108416958293833   34   34   20   20
 -0.5097978950323312   34   34   21   21
 -0.5096551904378609   34   34   22   22
 -0.5095075366782714   34   34   23   23
 -0.5089675002701088   34   34   24   24
 -0.5088011136333263   34   34   25   25
 -0.5070137713740752   34   34   26   26
 -0.5036070203979689   34   34   27   27
 -0.5016944481195729   34   34   28   28
 -0.5003995996878879   34   34   29   29
 -0.4964929280513802   34   34   30   30
 -0.4942466065792751   34   34   31   31
 -0.4890854279773236   34   34   32   32
 -0.4770605083826773   34   34   33   33
 -0.4766824512478416   34   34   34   34
 -0.5790147508851043   35   35    1    1
 -0.5779756759099011   35   35    2    2
 -0.5705094625860945   35   35    3    3
 -0.5688827686763881   35   35    4    4
 -0.5551390537518798   35   35    5    5
 -0.5549455944978917   35   35    6    6
 -0.5266889411568659   35   35    7    7
 -0.5244228783288131   35   35    8    8
 -0.5200935372894462   35   35    9    9
 -0.5177588871412545   35   35   10   10
 -0.5170711936218746   35   35   11   11
 -0.5156862913758207   35   35   12   12
 -0.5155104310985923   35   35   13   13
 -0.5148571370479971   35   35   14   14
 -0.5142362722510952   35   35   15   15
 -0.5140457122927269   35   35   16   16
 -0.5126400269515721   35   35   17   17
 -0.5110845216808949   35   35   18   18
 -0.510752364945213   35   35   19   19
 -0.5105649748248734   35   35   20   20
 -0.5095217394507449   35   35   21   21
 -0.5093791121588108   35   35   22   22
 -0.5092315383827015   35   35   23   23
 -0.5086917945102082   35   35   24   24
 -0.5085254980044341   35   35   25   25
 -0.5067391239416899   35   35   26   26
 -0.5033342183896354   35   35   27   27
 -0.5014226821443714   35   35   28   28
 -0.500128535127159   35   35   29   29
 -0.4962239797198245   35   35   30   30
 -0.4939788750715207   35   35   31   31
 -0.4888204922603961   35   35   32   32
 -0.4768020865189778   35   35   33   33
 -0.4764242341762548   35   35   34   34
 -0.476166156979874   35   35   35   35
 -0.5785557920006016   36   36    1    1
 -0.5775175406532779   36   36    2    2
 -0.5700572454601118   36   36    3    3
 -0.568431840957318   36   36    4    4
 -0.5546990200559084   36   36    5    5
 -0.5545057141483477   36   36    6    6
 -0.5262714585822963   36   36    7    7
 -0.5240071919600675   36   36    8    8
 -0.5196812825941269   36   36    9    9
 -0.5173484830178353   36   36   10   10
 -0.5166613346020993   36   36   11   11
 -0.5152775301056087   36   36   12   12
 -0.5151018092248923   36   36   13   13
 -0.5144490330110332   36   36   14   14
 -0.5138286603456603   36   36   15   15
 -0.5136382514355783   36   36   16   16
 -0.5122336803178092   36   36   17   17
 -0.5106794080260205   36   36   18   18
 -0.5103475145760056   36   36   19   19
 -0.5101602729913647   36   36   20   20
 -0.5091178645428763   36   36   21   21
 -0.5089753503051653   36   36   22   22
 -0.508827893504134   36   36   23   23
 -0.5082885774622707   36   36   24   24
 -0.5081224127722382   36   36   25   25
 -0.5063374546876637   36   36   26   26
 -0.5029352480507088   36   36   27   27
 -0.5010252269940326   36   36   28   28
 -0.4997321057888062   36   36   29   29
 -0.4958306453464814   36   36   30   30
 -0.4935873202913978   36   36   31   31
 -0.4884330262977294   36   36   32   32
 -0.4764241470046168   36   36   33   33
 -0.4760465941684081   36   36   34   34
 -0.4757887215381837   36   36   35   35
 -0.4754115852725491   36   36   36   36
 -0.3520389645800781    1    1  0  0
 -0.3507765903212084    2    2  0  0
 -0.3417725536865815    3    3  0  0
 -0.3398263397692411    4    4  0  0
 -0.3236048640617252    5    5  0  0
 -0.323379358589774    6    6  0  0
 -0.2912861788586389    7    7  0  0
 -0.2887850714328499    8    8  0  0
 -0.2840366577560883    9    9  0  0
 -0.2814923543853212   10   10  0  0
 -0.2807450879849602   11   11  0  0
 -0.2792432297159119   12   12  0  0
 -0.2790528061223478   13   13  0  0
 -0.2783459803722086   14   14  0  0
 -0.2776750718445952   15   15  0  0
 -0.277469314495723   16   16  0  0
 -0.2759538801536627   17   17  0  0
 -0.2742817653805136   18   18  0  0
 -0.2739253666742156   19   19  0  0
 -0.2737244023927362   20   20  0  0
 -0.2726069452515561   21   21  0  0
 -0.2724543482356991   22   22  0  0
 -0.2722965039434473   23   23  0  0
 -0.2717195857043586   24   24  0  0
 -0.2715419589674744   25   25  0  0
 -0.2696375372011631   26   26  0  0
 -0.2660261882204843   27   27  0  0
 -0.2640094245289699   28   28  0  0
 -0.2626483927741742   29   29  0  0
 -0.2585633548704601   30   30  0  0
 -0.2562289711690271   31   31  0  0
 -0.2509055611692658   32   32  0  0
 -0.2387194326774254   33   33  0  0
 -0.2383412256239208   34   34  0  0
 -0.238083078489937   35   35  0  0
 -0.2377057926362745   36   36  0  0
 -1483.599795629058  0  0  0  0
