 &FCI NORB=  36,NELEC=32,MS2=0,
  ORBSYM=1,1,1,1,1,1,1,1,1,1,1,1,1,1,1,1,1,1,1,1,1,1,1,1,1,1,1,1,1,1,1,1,1,1,1,1,
  ISYM=1,
 &END
 -0.07039631641801319    1    1    1    1
 -0.1093325617198069    2    2    1    1
 -0.1698044679104354    2    2    2    2
 -0.204604879528541    3    3    1    1
 -0.3177719624759195    3    3    2    2
 -0.5946782283082173    3    3    3    3
 -0.2131130415412857    4    4    1    1
 -0.3309859940575848    4    4    2    2
 -0.6194069577674406    4    4    3    3
 -0.6451639913271979    4    4    4    4
 -0.214198734919041    5    5    1    1
 -0.3326721851009821    5    5    2    2
 -0.6225624945066288    5    5    3    3
 -0.6484507459428904    5    5    4    4
 -0.6517542447601333    5    5    5    5
 -0.215560634762776    6    6    1    1
 -0.3347873525741946    6    6    2    2
 -0.6265208174365209    6    6    3    3
 -0.6525736693107773    6    6    4    4
 -0.6558981721480704    6    6    5    5
 -0.660068447096203    6    6    6    6
 -0.2161638165998866    7    7    1    1
 -0.3357241546512034    7    7    2    2
 -0.6282739481881781    7    7    3    3
 -0.6543997011608785    7    7    4    4
 -0.6577335066230738    7    7    5    5
 -0.6619154508358996    7    7    6    6
 -0.6637676228620512    7    7    7    7
 -0.2182151446286313    8    8    1    1
 -0.3389100734566496    8    8    2    2
 -0.6342360744122629    8    8    3    3
 -0.6606097527324519    8    8    4    4
 -0.6639751949814812    8    8    5    5
 -0.6681968245566093    8    8    6    6
 -0.6700665731247143    8    8    7    7
 -0.6764252984849342    8    8    8    8
 -0.2249819519389153    9    9    1    1
 -0.3494196059938999    9    9    2    2
 -0.653903606251461    9    9    3    3
 -0.6810951269792419    9    9    4    4
 -0.6845649309088129    9    9    5    5
 -0.6889174723595529    9    9    6    6
 -0.6908452014509648    9    9    7    7
 -0.6974011095929977    9    9    8    8
 -0.7190273763428398    9    9    9    9
 -0.2391374414029062   10   10    1    1
 -0.3714045052648487   10   10    2    2
 -0.6950461313695263   10   10    3    3
 -0.7239484972644632   10   10    4    4
 -0.7276366154745524   10   10    5    5
 -0.7322630115794838   10   10    6    6
 -0.7343120301725992   10   10    7    7
 -0.7412804251289371   10   10    8    8
 -0.7642673805406234   10   10    9    9
 -0.8123538104061266   10   10   10   10
 -0.2647541802911957   11   11    1    1
 -0.4111898779672111   11   11    2    2
 -0.7695004500163952   11   11    3    3
 -0.8014988779752268   11   11    4    4
 -0.8055820725925184   11   11    5    5
 -0.8107040547517229   11   11    6    6
 -0.8129725670969212   11   11    7    7
 -0.820687426316738   11   11    8    8
 -0.8461367767058203   11   11    9    9
 -0.8993742925355632   11   11   10   10
 -0.9957165310389297   11   11   11   11
 -0.2684977441377231   12   12    1    1
 -0.4170040092474916   12   12    2    2
 -0.7803810112275517   12   12    3    3
 -0.8128318896743063   12   12    4    4
 -0.8169728197340781   12   12    5    5
 -0.8221672255551591   12   12    6    6
 -0.8244678141485645   12   12    7    7
 -0.8322917597217093   12   12    8    8
 -0.8581009581325658   12   12    9    9
 -0.9120912403183297   12   12   10   10
 -1.009795736144916   12   12   11   11
 -1.024074018006422   12   12   12   12
 -0.2719287878859556   13   13    1    1
 -0.4223327653735863   13   13    2    2
 -0.7903532417146663   13   13    3    3
 -0.823218799189645   13   13    4    4
 -0.8274126448232108   13   13    5    5
 -0.8326734282359376   13   13    6    6
 -0.8350034152890434   13   13    7    7
 -0.842927340471445   13   13    8    8
 -0.8690663460810132   13   13    9    9
 -0.92374655220172   13   13   10   10
 -1.0226995814216   13   13   11   11
 -1.037160320718172   13   13   12   12
 -1.050413848958207   13   13   13   13
 -0.2826599873991669   14   14    1    1
 -0.4389993978453603   14   14    2    2
 -0.8215431660646783   14   14    3    3
 -0.8557057059486133   14   14    4    4
 -0.8600650544499383   14   14    5    5
 -0.8655334455853951   14   14    6    6
 -0.8679553815495539   14   14    7    7
 -0.8761920107406823   14   14    8    8
 -0.9033625470184593   14   14    9    9
 -0.9602006129445461   14   14   10   10
 -1.063058652396151   14   14   11   11
 -1.078090059769856   14   14   12   12
 -1.091866615589661   14   14   13   13
 -1.134955243994173   14   14   14   14
 -0.2847619713827355   15   15    1    1
 -0.4422639904449634   15   15    2    2
 -0.8276525223721188   15   15    3    3
 -0.8620691099277276   15   15    4    4
 -0.8664608764618024   15   15    5    5
 -0.871969932958807   15   15    6    6
 -0.8744098795039917   15   15    7    7
 -0.8827077598923542   15   15    8    8
 -0.9100803482278218   15   15    9    9
 -0.9673410870102013   15   15   10   10
 -1.070964024081373   15   15   11   11
 -1.086107211611304   15   15   12   12
 -1.09998621595928   15   15   13   13
 -1.143395270355506   15   15   14   14
 -1.151898060464887   15   15   15   15
 -0.2860457875131184   16   16    1    1
 -0.4442578860556156   16   16    2    2
 -0.8313838972232404   16   16    3    3
 -0.865955647949135   16   16    4    4
 -0.8703672142503275   16   16    5    5
 -0.8759011076859151   16   16    6    6
 -0.8783520544454783   16   16    7    7
 -0.8866873448596205   16   16    8    8
 -0.9141833393165754   16   16    9    9
 -0.9717022314602676   16   16   10   10
 -1.075792340455568   16   16   11   11
 -1.091003799280019   16   16   12   12
 -1.104945375500106   16   16   13   13
 -1.148550134554395   16   16   14   14
 -1.15709125850113   16   16   15   15
 -1.162307869464931   16   16   16   16
 -0.2942924236519199   17   17    1    1
 -0.4570657416438606   17   17    2    2
 -0.8553525092124815   17   17    3    3
 -0.8909209557869552   17   17    4    4
 -0.8954597065588732   17   17    5    5
 -0.9011531409056937   17   17    6    6
 -0.9036747479126858   17   17    7    7
 -0.9122503428869976   17   17    8    8
 -0.9405390407203328   17   17    9    9
 -0.9997161896722789   17   17   10   10
 -1.106807193251609   17   17   11   11
 -1.122457195035059   17   17   12   12
 -1.136800703782411   17   17   13   13
 -1.181662578297015   17   17   14   14
 -1.190449940938672   17   17   15   15
 -1.195816945630939   17   17   16   16
 -1.230292080975413   17   17   17   17
 -0.2954298647529018   18   18    1    1
 -0.458832302107583   18   18    2    2
 -0.8586584492286509   18   18    3    3
 -0.8943643679559234   18   18    4    4
 -0.8989206610132018   18   18    5    5
 -0.9046361005008664   18   18    6    6
 -0.9071674535265113   18   18    7    7
 -0.9157761932011457   18   18    8    8
 -0.9441742269365393   18   18    9    9
 -1.003580095746855   18   18   10   10
 -1.111085006376543   18   18   11   11
 -1.126795495463873   18   18   12   12
 -1.141194441915598   18   18   13   13
 -1.186229707709891   18   18   14   14
 -1.195051033534541   18   18   15   15
 -1.200438781716057   18   18   16   16
 -1.235047163562144   18   18   17   17
 -1.239820624557349   18   18   18   18
 -0.3069007015885793   19   19    1    1
 -0.4766476657534233   19   19    2    2
 -0.8919981082943174   19   19    3    3
 -0.9290904026614769   19   19    4    4
 -0.9338236057081339   19   19    5    5
 -0.9397609620756713   19   19    6    6
 -0.9423906015002047   19   19    7    7
 -0.9513335979983701   19   19    8    8
 -0.9808342596339769   19   19    9    9
 -1.04254671660448   19   19   10   10
 -1.154225786437398   19   19   11   11
 -1.170546276335175   19   19   12   12
 -1.185504299525778   19   19   13   13
 -1.232288177249369   19   19   14   14
 -1.241452014110584   19   19   15   15
 -1.247048955700335   19   19   16   16
 -1.283001098447627   19   19   17   17
 -1.287959901545138   19   19   18   18
 -1.33796831181157   19   19   19   19
 -0.3176393720595964   20   20    1    1
 -0.4933259013742959   20   20    2    2
 -0.9232097467694366   20   20    3    3
 -0.9615999264922213   20   20    4    4
 -0.9664987476281409   20   20    5    5
 -0.9726438562529066   20   20    6    6
 -0.9753655086024398   20   20    7    7
 -0.9846214268108527   20   20    8    8
 -1.01515433725639   20   20    9    9
 -1.079026156313499   20   20   10   10
 -1.194612955008676   20   20   11   11
 -1.211504510277209   20   20   12   12
 -1.226985925174349   20   20   13   13
 -1.275406803542218   20   20   14   14
 -1.284891289472639   20   20   15   15
 -1.29068407196815   20   20   16   16
 -1.32789420536744   20   20   17   17
 -1.333026520457981   20   20   18   18
 -1.384784760020505   20   20   19   19
 -1.433239348537808   20   20   20   20
 -0.3236053034758598   21   21    1    1
 -0.5025915930748613   21   21    2    2
 -0.940549555736881   21   21    3    3
 -0.9796607832875817   21   21    4    4
 -0.9846516145251708   21   21    5    5
 -0.9909121411359473   21   21    6    6
 -0.9936849118060807   21   21    7    7
 -1.003114675507475   21   21    8    8
 -1.034221057838679   21   21    9    9
 -1.099292523178476   21   21   10   10
 -1.217050283581484   21   21   11   11
 -1.234259097568899   21   21   12   12
 -1.250031285800919   21   21   13   13
 -1.299361609485925   21   21   14   14
 -1.309024233888956   21   21   15   15
 -1.314925816949251   21   21   16   16
 -1.352834834439675   21   21   17   17
 -1.35806354513646   21   21   18   18
 -1.41079391263594   21   21   19   19
 -1.460158579617457   21   21   20   20
 -1.487583410130067   21   21   21   21
 -0.362936490542709   22   22    1    1
 -0.5636768835603053   22   22    2    2
 -1.054864525624539   22   22    3    3
 -1.098729355760512   22   22    4    4
 -1.10432677568783   22   22    5    5
 -1.111348210542756   22   22    6    6
 -1.114457985460809   22   22    7    7
 -1.125033848426189   22   22    8    8
 -1.159920919544939   22   22    9    9
 -1.232901210693533   22   22   10   10
 -1.364971321522311   22   22   11   11
 -1.384271705316733   22   22   12   12
 -1.401960854980299   22   22   13   13
 -1.457286816462596   22   22   14   14
 -1.468123842162113   22   22   15   15
 -1.474742707247276   22   22   16   16
 -1.517259209974874   22   22   17   17
 -1.523123421376762   22   22   18   18
 -1.582262670084149   22   22   19   19
 -1.637627148968278   22   22   20   20
 -1.668385210202333   22   22   21   21
 -1.871161771949652   22   22   22   22
 -0.3749310852719659   23   23    1    1
 -0.5823056959082904   23   23    2    2
 -1.089726472022423   23   23    3    3
 -1.135040979647595   23   23    4    4
 -1.140823387266443   23   23    5    5
 -1.148076871715989   23   23    6    6
 -1.151289420785478   23   23    7    7
 -1.162214802725906   23   23    8    8
 -1.198254847685161   23   23    9    9
 -1.27364704570551   23   23   10   10
 -1.410081907658845   23   23   11   11
 -1.430020144873261   23   23   12   12
 -1.448293898694437   23   23   13   13
 -1.505448313648013   23   23   14   14
 -1.516643489422607   23   23   15   15
 -1.523481099677608   23   23   16   16
 -1.567402719368674   23   23   17   17
 -1.573460735584917   23   23   18   18
 -1.634554462112314   23   23   19   19
 -1.691748667419428   23   23   20   20
 -1.723523243908282   23   23   21   21
 -1.933001316090979   23   23   22   22
 -1.9968845794216   23   23   23   23
 -0.3754244067208853   24   24    1    1
 -0.5830718737497759   24   24    2    2
 -1.091160296699067   24   24    3    3
 -1.13653442759752   24   24    4    4
 -1.142324443509777   24   24    5    5
 -1.149587471845116   24   24    6    6
 -1.15280424787637   24   24    7    7
 -1.163744005059238   24   24    8    8
 -1.199831470272231   24   24    9    9
 -1.27532286675818   24   24   10   10
 -1.411937245018447   24   24   11   11
 -1.43190171628082   24   24   12   12
 -1.450199514079853   24   24   13   13
 -1.507429130850255   24   24   14   14
 -1.518639036852753   24   24   15   15
 -1.525485643800561   24   24   16   16
 -1.569465054050788   24   24   17   17
 -1.575531041196769   24   24   18   18
 -1.636705152751907   24   24   19   19
 -1.693974612230628   24   24   20   20
 -1.725790996616261   24   24   21   21
 -1.935544692854005   24   24   22   22
 -1.999512011589116   24   24   23   23
 -2.002142900841665   24   24   24   24
 -0.3983079234875786   25   25    1    1
 -0.6186122775175579   25   25    2    2
 -1.157670583450954   25   25    3    3
 -1.205810436733463   25   25    4    4
 -1.211953375694503   25   25    5    5
 -1.219659112675613   25   25    6    6
 -1.223071963194642   25   25    7    7
 -1.234678539349414   25   25    8    8
 -1.272965670062267   25   25    9    9
 -1.353058548514495   25   25   10   10
 -1.498000082280703   25   25   11   11
 -1.519181462472521   25   25   12   12
 -1.538594579241851   25   25   13   13
 -1.599312554444661   25   25   14   14
 -1.611205745996444   25   25   15   15
 -1.618469679154483   25   25   16   16
 -1.665129798367243   25   25   17   17
 -1.671565530037226   25   25   18   18
 -1.736468431682722   25   25   19   19
 -1.797228678155415   25   25   20   20
 -1.8309843897465   25   25   21   21
 -2.053523355505362   25   25   22   22
 -2.121389720718512   25   25   23   23
 -2.12418097247612   25   25   24   24
 -2.253657719402931   25   25   25   25
 -0.4125376611389265   26   26    1    1
 -0.6407124916933179   26   26    2    2
 -1.199028908801225   26   26    3    3
 -1.248888580953483   26   26    4    4
 -1.255250979294237   26   26    5    5
 -1.263232007348372   26   26    6    6
 -1.266766783555206   26   26    7    7
 -1.278788010094702   26   26    8    8
 -1.318442966535691   26   26    9    9
 -1.401397200690154   26   26   10   10
 -1.551516838829024   26   26   11   11
 -1.573454933777064   26   26   12   12
 -1.593561593261295   26   26   13   13
 -1.656448746647386   26   26   14   14
 -1.668766828053575   26   26   15   15
 -1.676290268635545   26   26   16   16
 -1.724617342523383   26   26   17   17
 -1.731282993730132   26   26   18   18
 -1.798504582021728   26   26   19   19
 -1.861435516838673   26   26   20   20
 -1.896397167081367   26   26   21   21
 -2.126886441918249   26   26   22   22
 -2.197177364905389   26   26   23   23
 -2.200068335443086   26   26   24   24
 -2.33417069996893   26   26   25   25
 -2.4175600445825   26   26   26   26
 -0.4239231958042864   27   27    1    1
 -0.6583953724867073   27   27    2    2
 -1.232120639549481   27   27    3    3
 -1.283356377644727   27   27    4    4
 -1.289894370394641   27   27    5    5
 -1.298095665057465   27   27    6    6
 -1.301727996762446   27   27    7    7
 -1.314080994445231   27   27    8    8
 -1.354830379162091   27   27    9    9
 -1.440074048676216   27   27   10   10
 -1.594336805140969   27   27   11   11
 -1.616880364666069   27   27   12   12
 -1.637541943349508   27   27   13   13
 -1.702164705220183   27   27   14   14
 -1.714822750600748   27   27   15   15
 -1.722553828937081   27   27   16   16
 -1.7722146709311   27   27   17   17
 -1.779064285955048   27   27   18   18
 -1.848141107830995   27   27   19   19
 -1.912808859446444   27   27   20   20
 -1.948735408456677   27   27   21   21
 -2.185585905251826   27   27   22   22
 -2.257816771705269   27   27   23   23
 -2.260787529492408   27   27   24   24
 -2.398590955191189   27   27   25   25
 -2.484281743680691   27   27   26   26
 -2.552844880033161   27   27   27   27
 -0.4253385812992246   28   28    1    1
 -0.6605936085572393   28   28    2    2
 -1.236234416994294   28   28    3    3
 -1.287641219851364   28   28    4    4
 -1.294201041508485   28   28    5    5
 -1.302429718474567   28   28    6    6
 -1.306074177729205   28   28    7    7
 -1.318468419330493   28   28    8    8
 -1.359353857201856   28   28    9    9
 -1.444882136415474   28   28   10   10
 -1.599659941997779   28   28   11   11
 -1.622278769466394   28   28   12   12
 -1.643009332576872   28   28   13   13
 -1.707847855511579   28   28   14   14
 -1.720548163297228   28   28   15   15
 -1.728305053988832   28   28   16   16
 -1.778131702516016   28   28   17   17
 -1.785004186884805   28   28   18   18
 -1.854311640942919   28   28   19   19
 -1.919195303833176   28   28   20   20
 -1.95524180361953   28   28   21   21
 -2.192883091673451   28   28   22   22
 -2.265355120964117   28   28   23   23
 -2.268335797452385   28   28   24   24
 -2.406599318215125   28   28   25   25
 -2.492576209235176   28   28   26   26
 -2.561368262687821   28   28   27   27
 -2.569920103026081   28   28   28   28
 -0.4268654154277624   29   29    1    1
 -0.6629649355682011   29   29    2    2
 -1.240672116703956   29   29    3    3
 -1.292263454104781   29   29    4    4
 -1.298846823495457   29   29    5    5
 -1.307105038870179   29   29    6    6
 -1.310762580607843   29   29    7    7
 -1.323201313708153   29   29    8    8
 -1.364233517672804   29   29    9    9
 -1.450068816990875   29   29   10   10
 -1.605402227087546   29   29   11   11
 -1.628102249160282   29   29   12   12
 -1.648907228589083   29   29   13   13
 -1.713978501793841   29   29   14   14
 -1.726724399761578   29   29   15   15
 -1.734509135294821   29   29   16   16
 -1.784514646099792   29   29   17   17
 -1.791411800564696   29   29   18   18
 -1.860968046975234   29   29   19   19
 -1.92608462217404   29   29   20   20
 -1.962260517760605   29   29   21   21
 -2.200754864636142   29   29   22   22
 -2.273487046126844   29   29   23   23
 -2.276478422323036   29   29   24   24
 -2.41523826641856   29   29   25   25
 -2.501523787920882   29   29   26   26
 -2.570562783596974   29   29   27   27
 -2.579145322400561   29   29   28   28
 -2.588403657463116   29   29   29   29
 -0.4277126649353389   30   30    1    1
 -0.6642807992922224   30   30    2    2
 -1.243134623156694   30   30    3    3
 -1.29482835989377   30   30    4    4
 -1.301424796064448   30   30    5    5
 -1.309699402481069   30   30    6    6
 -1.313364203767819   30   30    7    7
 -1.325827625470469   30   30    8    8
 -1.366941270829404   30   30    9    9
 -1.452946937463381   30   30   10   10
 -1.608588655870957   30   30   11   11
 -1.631333733321404   30   30   12   12
 -1.65218000681606   30   30   13   13
 -1.717380434555685   30   30   14   14
 -1.73015163079165   30   30   15   15
 -1.737951817596204   30   30   16   16
 -1.788056580162677   30   30   17   17
 -1.794967424213368   30   30   18   18
 -1.864661727007465   30   30   19   19
 -1.929907546657281   30   30   20   20
 -1.966155244757271   30   30   21   21
 -2.205122959140802   30   30   22   22
 -2.277999500663323   30   30   23   23
 -2.28099681419226   30   30   24   24
 -2.420032071111902   30   30   25   25
 -2.506488853538538   30   30   26   26
 -2.575664878950411   30   30   27   27
 -2.584264452518382   30   30   28   28
 -2.593541163676865   30   30   29   29
 -2.598688866897569   30   30   30   30
 -0.4302654732669884   31   31    1    1
 -0.6682455674602269   31   31    2    2
 -1.250554287533095   31   31    3    3
 -1.302556558977359   31   31    4    4
 -1.309192366058924   31   31    5    5
 -1.317516359566302   31   31    6    6
 -1.321203034264867   31   31    7    7
 -1.333740844054127   31   31    8    8
 -1.375099876713979   31   31    9    9
 -1.461618869233188   31   31   10   10
 -1.618189537162432   31   31   11   11
 -1.641070368889007   31   31   12   12
 -1.662041063624893   31   31   13   13
 -1.727630640924038   31   31   14   14
 -1.740478062202723   31   31   15   15
 -1.748324804518711   31   31   16   16
 -1.798728617980379   31   31   17   17
 -1.805680709489277   31   31   18   18
 -1.875790983591748   31   31   19   19
 -1.941426223723262   31   31   20   20
 -1.97789026665776   31   31   21   21
 -2.21828426280072   31   31   22   22
 -2.291595768862829   31   31   23   23
 -2.294610971894643   31   31   24   24
 -2.434476062465134   31   31   25   25
 -2.521448863267189   31   31   26   26
 -2.591037766642469   31   31   27   27
 -2.599688666871661   31   31   28   28
 -2.60902074619545   31   31   29   29
 -2.614199173546505   31   31   30   30
 -2.629802053652546   31   31   31   31
 -0.5554496407178003   32   32    1    1
 -0.8626691738445   32   32    2    2
 -1.614398488528818   32   32    3    3
 -1.681530630856916   32   32    4    4
 -1.690097101764612   32   32    5    5
 -1.700842930770839   32   32    6    6
 -1.705602230003503   32   32    7    7
 -1.721787869743439   32   32    8    8
 -1.775180161848401   32   32    9    9
 -1.886871539139649   32   32   10   10
 -2.088995870864216   32   32   11   11
 -2.118533796985386   32   32   12   12
 -2.145605838737207   32   32   13   13
 -2.230278463916768   32   32   14   14
 -2.246863795477796   32   32   15   15
 -2.256993518802159   32   32   16   16
 -2.322062137637671   32   32   17   17
 -2.331036914771271   32   32   18   18
 -2.421545516972497   32   32   19   19
 -2.506277090418675   32   32   20   20
 -2.553350213421778   32   32   21   21
 -2.863685964451159   32   32   22   22
 -2.958327185354822   32   32   23   23
 -2.962219650692547   32   32   24   24
 -3.142777978360487   32   32   25   25
 -3.255055197796464   32   32   26   26
 -3.344890738362277   32   32   27   27
 -3.356058586406659   32   32   28   28
 -3.368105800114491   32   32   29   29
 -3.374790871983695   32   32   30   30
 -3.394933353050693   32   32   31   31
 -4.382676808563629   32   32   32   32
 -0.5564365398022929   33   33    1    1
 -0.8642019274111182   33   33    2    2
 -1.617266882481285   33   33    3    3
 -1.684518302318894   33   33    4    4
 -1.693099993764468   33   33    5    5
 -1.703864915498517   33   33    6    6
 -1.708632670849812   33   33    7    7
 -1.724847068539831   33   33    8    8
 -1.778334225778074   33   33    9    9
 -1.890224051515254   33   33   10   10
 -2.092707509078259   33   33   11   11
 -2.12229791691894   33   33   12   12
 -2.149418059112748   33   33   13   13
 -2.234241126979001   33   33   14   14
 -2.250855926645386   33   33   15   15
 -2.261003648027435   33   33   16   16
 -2.326187877992472   33   33   17   17
 -2.335178601124931   33   33   18   18
 -2.425848015126369   33   33   19   19
 -2.510730135995988   33   33   20   20
 -2.5578868965039   33   33   21   21
 -2.868774038777643   33   33   22   22
 -2.963583414141077   33   33   23   23
 -2.967482795444169   33   33   24   24
 -3.148361931400043   33   33   25   25
 -3.260838640181136   33   33   26   26
 -3.350833796680131   33   33   27   27
 -3.36202148727765   33   33   28   28
 -3.374090105957791   33   33   29   29
 -3.380787055575804   33   33   30   30
 -3.400965324938745   33   33   31   31
 -4.390463760634403   33   33   32   32
 -4.398264548227439   33   33   33   33
 -0.5570618458648658   34   34    1    1
 -0.8651730906361095   34   34    2    2
 -1.619084316661243   34   34    3    3
 -1.686411311551051   34   34    4    4
 -1.695002646834339   34   34    5    5
 -1.70577966585234   34   34    6    6
 -1.710552779058687   34   34    7    7
 -1.726785397984106   34   34    8    8
 -1.780332662424695   34   34    9    9
 -1.892348226465112   34   34   10   10
 -2.095059228634784   34   34   11   11
 -2.124682889254702   34   34   12   12
 -2.151833508220106   34   34   13   13
 -2.236751897609639   34   34   14   14
 -2.253385368470701   34   34   15   15
 -2.263544493546159   34   34   16   16
 -2.328801975519764   34   34   17   17
 -2.337802802147015   34   34   18   18
 -2.428574107613534   34   34   19   19
 -2.51355161636836   34   34   20   20
 -2.560761370175826   34   34   21   21
 -2.871997877742706   34   34   22   22
 -2.96691379693093   34   34   23   23
 -2.97081756023735   34   34   24   24
 -3.151899962535774   34   34   25   25
 -3.264503069140998   34   34   26   26
 -3.354599359395482   34   34   27   27
 -3.365799622371441   34   34   28   28
 -3.377881803389582   34   34   29   29
 -3.384586278831111   34   34   30   30
 -3.40478722390505   34   34   31   31
 -4.395397627141457   34   34   32   32
 -4.403207181016766   34   34   33   33
 -4.408155368182965   34   34   34   34
 -0.5585155485678572   35   35    1    1
 -0.8674308371857059   35   35    2    2
 -1.623309461974951   35   35    3    3
 -1.690812152678755   35   35    4    4
 -1.69942590781976   35   35    5    5
 -1.710231050432642   35   35    6    6
 -1.715016619504744   35   35    7    7
 -1.731291598900879   35   35    8    8
 -1.784978599716581   35   35    9    9
 -1.897286478388545   35   35   10   10
 -2.100526473046157   35   35   11   11
 -2.130227439257608   35   35   12   12
 -2.157448910191194   35   35   13   13
 -2.242588901711811   35   35   14   14
 -2.259265779102561   35   35   15   15
 -2.269451415323401   35   35   16   16
 -2.334879192531978   35   35   17   17
 -2.343903507621226   35   35   18   18
 -2.434911688926739   35   35   19   19
 -2.52011095408992   35   35   20   20
 -2.56744390597176   35   35   21   21
 -2.879492613037991   35   35   22   22
 -2.974656223805356   35   35   23   23
 -2.978570174331225   35   35   24   24
 -3.160125127352048   35   35   25   25
 -3.273022081833685   35   35   26   26
 -3.363353486414602   35   35   27   27
 -3.374582977478401   35   35   28   28
 -3.386696688028377   35   35   29   29
 -3.393418659398129   35   35   30   30
 -3.413672320644743   35   35   31   31
 -4.406867810315424   35   35   32   32
 -4.414697743919952   35   35   33   33
 -4.419658843823062   35   35   34   34
 -4.431192338811559   35   35   35   35
 -0.5602543639847073   36   36    1    1
 -0.8701313924640991   36   36    2    2
 -1.628363279234001   36   36    3    3
 -1.696076124730409   36   36    4    4
 -1.704716696905021   36   36    5    5
 -1.715555478954808   36   36    6    6
 -1.720355946844504   36   36    7    7
 -1.736681594812275   36   36    8    8
 -1.790535738306354   36   36    9    9
 -1.903193262876931   36   36   10   10
 -2.107066000592346   36   36   11   11
 -2.136859434234787   36   36   12   12
 -2.164165653235727   36   36   13   13
 -2.249570709408932   36   36   14   14
 -2.266299506592402   36   36   15   15
 -2.276516853553142   36   36   16   16
 -2.342148325767154   36   36   17   17
 -2.35120073607818   36   36   18   18
 -2.442492251355539   36   36   19   19
 -2.527956765706768   36   36   20   20
 -2.575437078332043   36   36   21   21
 -2.888457280469534   36   36   22   22
 -2.983917162225145   36   36   23   23
 -2.987843297975816   36   36   24   24
 -3.169963482442976   36   36   25   25
 -3.283211916781299   36   36   26   26
 -3.373824548338464   36   36   27   27
 -3.385088999954811   36   36   28   28
 -3.397240423880384   36   36   29   29
 -3.403983322630725   36   36   30   30
 -3.424300039200532   36   36   31   31
 -4.420587624756123   36   36   32   32
 -4.428441935138164   36   36   33   33
 -4.433418480335533   36   36   34   34
 -4.444987882325989   36   36   35   35
 -4.458826375233337   36   36   36   36
 -0.0351981582090066    1    1  0  0
 -0.08490223395521769    2    2  0  0
 -0.2973391141541086    3    3  0  0
 -0.322581995663599    4    4  0  0
 -0.3258771223800667    5    5  0  0
 -0.3300342235481015    6    6  0  0
 -0.3318838114310256    7    7  0  0
 -0.3382126492424671    8    8  0  0
 -0.3595136881714199    9    9  0  0
 -0.4061769052030633   10   10  0  0
 -0.4978582655194648   11   11  0  0
 -0.5120370090032109   12   12  0  0
 -0.5252069244791034   13   13  0  0
 -0.5674776219970866   14   14  0  0
 -0.5759490302324435   15   15  0  0
 -0.5811539347324653   16   16  0  0
 -0.6151460404877066   17   17  0  0
 -0.6199103122786743   18   18  0  0
 -0.6689841559057851   19   19  0  0
 -0.7166196742689042   20   20  0  0
 -0.7437917050650336   21   21  0  0
 -0.9355808859748258   22   22  0  0
 -0.9984422897108001   23   23  0  0
 -1.001071450420833   24   24  0  0
 -1.126828859701466   25   25  0  0
 -1.20878002229125   26   26  0  0
 -1.27642244001658   27   27  0  0
 -1.284960051513041   28   28  0  0
 -1.294201828731558   29   29  0  0
 -1.299344433448784   30   30  0  0
 -1.314901026826273   31   31  0  0
 -2.191338404281815   32   32  0  0
 -2.199132274113719   33   33  0  0
 -2.204077684091482   34   34  0  0
 -2.21559616940578   35   35  0  0
 -2.229413187616669   36   36  0  0
 -1507.487296685646  0  0  0  0
