 &FCI NORB=  35,NELEC=52,MS2=0,
  ORBSYM=1,1,1,1,1,1,1,1,1,1,1,1,1,1,1,1,1,1,1,1,1,1,1,1,1,1,1,1,1,1,1,1,1,1,1,
  ISYM=1,
 &END
 -0.6873639067188362    1    1    1    1
 -0.6813826307351326    2    2    1    1
 -0.6754534023815759    2    2    2    2
 -0.680077035903302    3    3    1    1
 -0.6741591685230751    3    3    2    2
 -0.6728674145414609    3    3    3    3
 -0.6791577603082503    4    4    1    1
 -0.6732478922439393    4    4    2    2
 -0.6719578843555577    4    4    3    3
 -0.6710495836022904    4    4    4    4
 -0.6760696397159578    5    5    1    1
 -0.6701866437369468    5    5    2    2
 -0.668902501495926    5    5    3    3
 -0.6679983307731525    5    5    4    4
 -0.6649609519468526    5    5    5    5
 -0.6614917601061343    6    6    1    1
 -0.6557356173417762    6    6    2    2
 -0.65447916466096    6    6    3    3
 -0.6535944902905872    6    6    4    4
 -0.6506226055203106    6    6    5    5
 -0.6365934324033377    6    6    6    6
 -0.6274873927291253    7    7    1    1
 -0.622027147820248    7    7    2    2
 -0.6208352838178207    7    7    3    3
 -0.6199960866462786    7    7    4    4
 -0.6171769733353387    7    7    5    5
 -0.6038689779947732    7    7    6    6
 -0.5728267431345557    7    7    7    7
 -0.6265766683231594    8    8    1    1
 -0.6211243483198001    8    8    2    2
 -0.61993421416828    8    8    3    3
 -0.6190962349930744    8    8    4    4
 -0.6162812132946914    8    8    5    5
 -0.6029925329496009    8    8    6    6
 -0.5719953522549819    8    8    7    7
 -0.5711651680418266    8    8    8    8
 -0.6198505470095573    9    9    1    1
 -0.6144567561018973    9    9    2    2
 -0.6132793977000776    9    9    3    3
 -0.6124504139916291    9    9    4    4
 -0.6096656107459926    9    9    5    5
 -0.5965195805834215    9    9    6    6
 -0.5658551457573801    9    9    7    7
 -0.565033873334294    9    9    8    8
 -0.5589683963217014    9    9    9    9
 -0.6190792408460223   10   10    1    1
 -0.6136921616597473   10   10    2    2
 -0.6125162682946149   10   10    3    3
 -0.6116883161255381   10   10    4    4
 -0.608906978127965   10   10    5    5
 -0.5957773061248556   10   10    6    6
 -0.565151028347633   10   10    7    7
 -0.5643307778684412   10   10    8    8
 -0.5582728483845669   10   10    9    9
 -0.5575781659470492   10   10   10   10
 -0.6184369237787748   11   11    1    1
 -0.6130554338816822   11   11    2    2
 -0.6118807605483775   11   11    3    3
 -0.6110536674095732   11   11    4    4
 -0.6082752151506063   11   11    5    5
 -0.595159165656311   11   11    6    6
 -0.5645646637481931   11   11    7    7
 -0.5637452643084926   11   11    8    8
 -0.5576936201452088   11   11    9    9
 -0.556999658465805   11   11   10   10
 -0.5564217512069625   11   11   11   11
 -0.6151390432477418   12   12    1    1
 -0.6097862507166655   12   12    2    2
 -0.6086178414535792   12   12    3    3
 -0.6077951588767174   12   12    4    4
 -0.6050315230092999   12   12    5    5
 -0.5919854162409448   12   12    6    6
 -0.56155406276126   12   12    7    7
 -0.5607390328560349   12   12    8    8
 -0.5547196597275155   12   12    9    9
 -0.5540293986724176   12   12   10   10
 -0.5534545731653663   12   12   11   11
 -0.5505032179155849   12   12   12   12
 -0.6136802424677131   13   13    1    1
 -0.6083401440714106   13   13    2    2
 -0.6071745056881166   13   13    3    3
 -0.606353774101032   13   13    4    4
 -0.60359669218951   13   13    5    5
 -0.59058152423237   13   13    6    6
 -0.5602223386351838   13   13    7    7
 -0.5594092415714431   13   13    8    8
 -0.5534041433720013   13   13    9    9
 -0.552715519269356   13   13   10   10
 -0.5521420569596295   13   13   11   11
 -0.5491977008418131   13   13   12   12
 -0.547895279798681   13   13   13   13
 -0.6121167633265315   14   14    1    1
 -0.6067902699510146   14   14    2    2
 -0.6056276012760026   14   14    3    3
 -0.6048089606747898   14   14    4    4
 -0.6020589030077537   14   14    5    5
 -0.589076893921002   14   14    6    6
 -0.5587950547171651   14   14    7    7
 -0.5579840291887467   14   14    8    8
 -0.5519942302365771   14   14    9    9
 -0.5513073605482768   14   14   10   10
 -0.5507353592540717   14   14   11   11
 -0.5477985045010637   14   14   12   12
 -0.5464994016487303   14   14   13   13
 -0.5451070797911615   14   14   14   14
 -0.6117596060917727   15   15    1    1
 -0.6064362206129169   15   15    2    2
 -0.6052742303305804   15   15    3    3
 -0.6044560673889107   15   15    4    4
 -0.6017076143225825   15   15    5    5
 -0.588733179964616   15   15    6    6
 -0.5584690095759486   15   15    7    7
 -0.5576584572638387   15   15    8    8
 -0.5516721532331591   15   15    9    9
 -0.5509856843188502   15   15   10   10
 -0.550414016775349   15   15   11   11
 -0.5474788756152129   15   15   12   12
 -0.5461805307620232   15   15   13   13
 -0.5447890212949235   15   15   14   14
 -0.5444711483791169   15   15   15   15
 -0.6104848215431151   16   16    1    1
 -0.605172528933889   16   16    2    2
 -0.6040129600066776   16   16    3    3
 -0.6031965019527873   16   16    4    4
 -0.6004537761124261   16   16    5    5
 -0.5875063778782613   16   16    6    6
 -0.5573052719619868   16   16    7    7
 -0.5564964086786278   16   16    8    8
 -0.5505225789071275   16   16    9    9
 -0.5498375404566094   16   16   10   10
 -0.5492670641538244   16   16   11   11
 -0.5463380392402692   16   16   12   12
 -0.5450423998778331   16   16   13   13
 -0.5436537900378914   16   16   14   14
 -0.5433365795056052   16   16   15   15
 -0.5422043748464923   16   16   16   16
 -0.6094090449436903   17   17    1    1
 -0.6041061134846133   17   17    2    2
 -0.602948587912246   17   17    3    3
 -0.6021335685943205   17   17    4    4
 -0.5993956758966906   17   17    5    5
 -0.5864710931487627   17   17    6    6
 -0.5563232066441343   17   17    7    7
 -0.5555157687134814   17   17    8    8
 -0.5495524658315127   17   17    9    9
 -0.5488686345335867   17   17   10   10
 -0.5482991635056841   17   17   11   11
 -0.5453753000250587   17   17   12   12
 -0.5440819437963849   17   17   13   13
 -0.5426957809197726   17   17   14   14
 -0.5423791293656226   17   17   15   15
 -0.5412489198409258   17   17   16   16
 -0.5402951485072552   17   17   17   17
 -0.60894328261408   18   18    1    1
 -0.6036444041071715   18   18    2    2
 -0.6024877632144978   18   18    3    3
 -0.6016733668037959   18   18    4    4
 -0.598937566637105   18   18    5    5
 -0.586022861956823   18   18    6    6
 -0.5558980170364436   18   18    7    7
 -0.5550911962186719   18   18    8    8
 -0.5491324510009938   18   18    9    9
 -0.5484491423452258   18   18   10   10
 -0.5478801065556164   18   18   11   11
 -0.5449584777406521   18   18   12   12
 -0.5436661100050356   18   18   13   13
 -0.5422810065522307   18   18   14   14
 -0.5419645970101853   18   18   15   15
 -0.5408352512879305   18   18   16   16
 -0.5398822089075992   18   18   17   17
 -0.5394695849115784   18   18   18   18
 -0.6068762060322368   19   19    1    1
 -0.601595314730351   19   19    2    2
 -0.600442600090534   19   19    3    3
 -0.5996309681733357   19   19    4    4
 -0.5969044547639154   19   19    5    5
 -0.5840335894433375   19   19    6    6
 -0.554011004229641   19   19    7    7
 -0.5532069221897913   19   19    8    8
 -0.547268404114851   19   19    9    9
 -0.5465874149711966   19   19   10   10
 -0.5460203107909645   19   19   11   11
 -0.543108599534296   19   19   12   12
 -0.5418206187804523   19   19   13   13
 -0.540440217103646   19   19   14   14
 -0.5401248816234605   19   19   15   15
 -0.5389993694997721   19   19   16   16
 -0.5380495622509253   19   19   17   17
 -0.5376383389196685   19   19   18   18
 -0.5358133091482402   19   19   19   19
 -0.6064874187813762   20   20    1    1
 -0.6012099106129714   20   20    2    2
 -0.6000579344446109   20   20    3    3
 -0.5992468224887139   20   20    4    4
 -0.5965220557842102   20   20    5    5
 -0.5836594360140337   20   20    6    6
 -0.5536560843742571   20   20    7    7
 -0.5528525174589791   20   20    8    8
 -0.546917803817453   20   20    9    9
 -0.5462372509405272   20   20   10   10
 -0.5456705100681213   20   20   11   11
 -0.5427606641609319   20   20   12   12
 -0.5414735085349998   20   20   13   13
 -0.5400939911943524   20   20   14   14
 -0.5397788577296903   20   20   15   15
 -0.5386540666505247   20   20   16   16
 -0.5377048678831861   20   20   17   17
 -0.537293907996742   20   20   18   18
 -0.5354700474066073   20   20   19   19
 -0.5351270055710895   20   20   20   20
 -0.6062157418154782   21   21    1    1
 -0.6009405977149207   21   21    2    2
 -0.599789137576045   21   21    3    3
 -0.598978388958988   21   21    4    4
 -0.5962548428178929   21   21    5    5
 -0.5833979848778952   21   21    6    6
 -0.5534080732853279   21   21    7    7
 -0.5526048663290773   21   21    8    8
 -0.5466728111515947   21   21    9    9
 -0.5459925631293699   21   21   10   10
 -0.5454260761294036   21   21   11   11
 -0.5425175336921344   21   21   12   12
 -0.5412309546495315   21   21   13   13
 -0.5398520552657847   21   21   14   14
 -0.5395370629656395   21   21   15   15
 -0.5384127757383566   21   21   16   16
 -0.5374640021660561   21   21   17   17
 -0.5370532263697211   21   21   18   18
 -0.5352301827807243   21   21   19   19
 -0.5348872946113209   21   21   20   20
 -0.5346476910304429   21   21   21   21
 -0.6056449104450775   22   22    1    1
 -0.6003747335823008   22   22    2    2
 -0.599224357693674   22   22    3    3
 -0.5984143725024277   22   22    4    4
 -0.5956933909360685   22   22    5    5
 -0.582848639408575   22   22    6    6
 -0.5528869672382988   22   22    7    7
 -0.5520845166063993   22   22    8    8
 -0.5461580472343531   22   22    9    9
 -0.5454784397545688   22   22   10   10
 -0.5449124861761688   22   22   11   11
 -0.5420066825118328   22   22   12   12
 -0.5407213149515906   22   22   13   13
 -0.5393437139818746   22   22   14   14
 -0.5390290182881584   22   22   15   15
 -0.5379057897242759   22   22   16   16
 -0.5369579095463251   22   22   17   17
 -0.5365475205491024   22   22   18   18
 -0.5347261935939679   22   22   19   19
 -0.5343836282986011   22   22   20   20
 -0.5341442503358174   22   22   21   21
 -0.5336412836964198   22   22   22   22
 -0.6046075054100393   23   23    1    1
 -0.5993463557972546   23   23    2    2
 -0.5981979503796391   23   23    3    3
 -0.5973893526065006   23   23    4    4
 -0.5946730317909024   23   23    5    5
 -0.5818502819506659   23   23    6    6
 -0.5519399309242341   23   23    7    7
 -0.5511388548045473   23   23    8    8
 -0.5452225368414545   23   23    9    9
 -0.5445440934566856   23   23   10   10
 -0.5439791092963089   23   23   11   11
 -0.5410782829632443   23   23   12   12
 -0.5397951171003266   23   23   13   13
 -0.5384198758139128   23   23   14   14
 -0.5381057191603034   23   23   15   15
 -0.5369844145669647   23   23   16   16
 -0.5360381580065037   23   23   17   17
 -0.5356284719617943   23   23   18   18
 -0.5338102647451751   23   23   19   19
 -0.5334682862275656   23   23   20   20
 -0.5332293182936612   23   23   21   21
 -0.5327272131823887   23   23   22   22
 -0.5318147083735048   23   23   23   23
 -0.604025699411911   24   24    1    1
 -0.5987696125354872   24   24    2    2
 -0.5976223122135813   24   24    3    3
 -0.5968144925436425   24   24    4    4
 -0.5941007856085025   24   24    5    5
 -0.5812903749349202   24   24    6    6
 -0.5514088062531957   24   24    7    7
 -0.5506085009987184   24   24    8    8
 -0.5446978762320333   24   24    9    9
 -0.5440200857045761   24   24   10   10
 -0.543455645221164   24   24   11   11
 -0.5405576103158356   24   24   12   12
 -0.5392756792268645   24   24   13   13
 -0.537901761317389   24   24   14   14
 -0.537587906972672   24   24   15   15
 -0.5364676813962697   24   24   16   16
 -0.5355223354062824   24   24   17   17
 -0.5351130435971656   24   24   18   18
 -0.5332965860178813   24   24   19   19
 -0.5329549365817851   24   24   20   20
 -0.5327161986036388   24   24   21   21
 -0.5322145766616337   24   24   22   22
 -0.5313029499443487   24   24   23   23
 -0.5307916839737231   24   24   24   24
 -0.6034345252108043   25   25    1    1
 -0.5981835825905987   25   25    2    2
 -0.5970374051585828   25   25    3    3
 -0.5962303761208116   25   25    4    4
 -0.593519325154666   25   25    5    5
 -0.5807214523322102   25   25    6    6
 -0.5508691294466669   25   25    7    7
 -0.5500696074698216   25   25    8    8
 -0.5441647675710284   25   25    9    9
 -0.5434876404131498   25   25   10   10
 -0.542923752360954   25   25   11   11
 -0.5400285538307527   25   25   12   12
 -0.5387478773979795   25   25   13   13
 -0.5373753041743728   25   25   14   14
 -0.5370617570063071   25   25   15   15
 -0.5359426278211026   25   25   16   16
 -0.5349982070635366   25   25   17   17
 -0.5345893158379689   25   25   18   18
 -0.532774636068568   25   25   19   19
 -0.5324333210128344   25   25   20   20
 -0.5321948166931793   25   25   21   21
 -0.5316936857004021   25   25   22   22
 -0.5307829512136908   25   25   23   23
 -0.5302721856311315   25   25   24   24
 -0.5297531957338228   25   25   25   25
 -0.6002421404449259   26   26    1    1
 -0.5950189771918711   26   26    2    2
 -0.5938788634489882   26   26    3    3
 -0.5930761038838741   26   26    4    4
 -0.5903793953483357   26   26    5    5
 -0.5776492278568266   26   26    6    6
 -0.5479548344513252   26   26    7    7
 -0.5471595422320962   26   26    8    8
 -0.5412859410512587   26   26    9    9
 -0.5406123961385667   26   26   10   10
 -0.5400514912561305   26   26   11   11
 -0.537171609363105   26   26   12   12
 -0.5358977081673512   26   26   13   13
 -0.5345323963477014   26   26   14   14
 -0.5342205079564556   26   26   15   15
 -0.5331072993654707   26   26   16   16
 -0.5321678749319683   26   26   17   17
 -0.531761146887433   26   26   18   18
 -0.5299560674239623   26   26   19   19
 -0.5296165580471197   26   26   20   20
 -0.5293793155007388   26   26   21   21
 -0.5288808356703998   26   26   22   22
 -0.5279749192953138   26   26   23   23
 -0.5274668558456234   26   26   24   24
 -0.5269506115907541   26   26   25   25
 -0.5241628541215823   26   26   26   26
 -0.6001812391061343   27   27    1    1
 -0.5949586058019342   27   27    2    2
 -0.5938186077364564   27   27    3    3
 -0.5930159296203593   27   27    4    4
 -0.5903194946963338   27   27    5    5
 -0.5775906188239748   27   27    6    6
 -0.5478992382497812   27   27    7    7
 -0.5471040267219225   27   27    8    8
 -0.5412310214842075   27   27    9    9
 -0.5405575449102478   27   27   10   10
 -0.5399966969379416   27   27   11   11
 -0.5371171072414332   27   27   12   12
 -0.5358433352973315   27   27   13   13
 -0.5344781620039732   27   27   14   14
 -0.5341663052573242   27   27   15   15
 -0.5330532096139133   27   27   16   16
 -0.5321138804956209   27   27   17   17
 -0.5317071937182357   27   27   18   18
 -0.5299022974004466   27   27   19   19
 -0.5295628224706616   27   27   20   20
 -0.5293256039952143   27   27   21   21
 -0.5288271747412793   27   27   22   22
 -0.5279213502816327   27   27   23   23
 -0.5274133383807126   27   27   24   24
 -0.5268971465046488   27   27   25   25
 -0.5241096718849315   27   27   26   26
 -0.524056495044219   27   27   27   27
 -0.5965578733200398   28   28    1    1
 -0.5913667696765401   28   28    2    2
 -0.590233653915469   28   28    3    3
 -0.5894358216629771   28   28    4    4
 -0.5867556654384704   28   28    5    5
 -0.5741036353092405   28   28    6    6
 -0.5445915051439312   28   28    7    7
 -0.5438010944029931   28   28    8    8
 -0.5379635451989783   28   28    9    9
 -0.5372941344834906   28   28   10   10
 -0.5367366724173436   28   28   11   11
 -0.5338744671475791   28   28   12   12
 -0.5326083851167582   28   28   13   13
 -0.5312514535375372   28   28   14   14
 -0.5309414795072951   28   28   15   15
 -0.5298351037551574   28   28   16   16
 -0.528901445478883   28   28   17   17
 -0.5284972139181203   28   28   18   18
 -0.5267032139748581   28   28   19   19
 -0.5263657884957484   28   28   20   20
 -0.5261300021365549   28   28   21   21
 -0.5256345819595251   28   28   22   22
 -0.5247342260702726   28   28   23   23
 -0.5242292810978415   28   28   24   24
 -0.523716205533753   28   28   25   25
 -0.520945559231065   28   28   26   26
 -0.5208927034252877   28   28   27   27
 -0.5177480119940322   28   28   28   28
 -0.5929001810095903   29   29    1    1
 -0.5877409057279792   29   29    2    2
 -0.5866147374719055   29   29    3    3
 -0.5858217969910681   29   29    4    4
 -0.5831580736848943   29   29    5    5
 -0.5705836173089999   29   29    6    6
 -0.5412524357094515   29   29    7    7
 -0.5404668712364423   29   29    8    8
 -0.5346651139644266   29   29    9    9
 -0.5339998076259593   29   29   10   10
 -0.5334457635428846   29   29   11   11
 -0.5306011073939589   29   29   12   12
 -0.529342788128019   29   29   13   13
 -0.5279941763421074   29   29   14   14
 -0.5276861028644816   29   29   15   15
 -0.5265865106655615   29   29   16   16
 -0.5256585769549167   29   29   17   17
 -0.5252568238706566   29   29   18   18
 -0.5234738235304353   29   29   19   19
 -0.5231384669177935   29   29   20   20
 -0.5229041262422319   29   29   21   21
 -0.5224117436490695   29   29   22   22
 -0.5215169081375709   29   29   23   23
 -0.521015059148657   29   29   24   24
 -0.5205051294194143   29   29   25   25
 -0.5177514708594577   29   29   26   26
 -0.5176989391299904   29   29   27   27
 -0.5145735288350357   29   29   28   28
 -0.5114185094752107   29   29   29   29
 -0.5925468298950427   30   30    1    1
 -0.5873906293901467   30   30    2    2
 -0.5862651322973164   30   30    3    3
 -0.5854726643857439   30   30    4    4
 -0.5828105285805174   30   30    5    5
 -0.5702435662117386   30   30    6    6
 -0.5409298651359632   30   30    7    7
 -0.5401447688363347   30   30    8    8
 -0.5343464692414526   30   30    9    9
 -0.5336815594060456   30   30   10   10
 -0.533127845516991   30   30   11   11
 -0.530284884699679   30   30   12   12
 -0.5290273153551076   30   30   13   13
 -0.5276795073022575   30   30   14   14
 -0.5273716174273866   30   30   15   15
 -0.5262726805531595   30   30   16   16
 -0.5253452998637843   30   30   17   17
 -0.5249437862125766   30   30   18   18
 -0.5231618484882519   30   30   19   19
 -0.5228266917383133   30   30   20   20
 -0.5225924907229197   30   30   21   21
 -0.5221004015753381   30   30   22   22
 -0.5212060993595536   30   30   23   23
 -0.5207045494579148   30   30   24   24
 -0.5201949236318314   30   30   25   25
 -0.5174429061715952   30   30   26   26
 -0.5173904057494977   30   30   27   27
 -0.5142668581073916   30   30   28   28
 -0.5111137190465492   30   30   29   29
 -0.5108091102640419   30   30   30   30
 -0.59126130399892   31   31    1    1
 -0.5861162898322849   31   31    2    2
 -0.5849932344969426   31   31    3    3
 -0.5842024858385509   31   31    4    4
 -0.5815461255169555   31   31    5    5
 -0.56900642707863   31   31    6    6
 -0.539756321857128   31   31    7    7
 -0.5389729288180238   31   31    8    8
 -0.5331872085905547   31   31    9    9
 -0.5325237412720406   31   31   10   10
 -0.5319712286611087   31   31   11   11
 -0.5291344356259331   31   31   12   12
 -0.5278795945686077   31   31   13   13
 -0.5265347105752032   31   31   14   14
 -0.5262274886651028   31   31   15   15
 -0.5251309359261689   31   31   16   16
 -0.5242055671822325   31   31   17   17
 -0.523804924611875   31   31   18   18
 -0.5220268527880569   31   31   19   19
 -0.5216924231581694   31   31   20   20
 -0.5214587302401195   31   31   21   21
 -0.520967708676247   31   31   22   22
 -0.5200753466424013   31   31   23   23
 -0.5195748848495064   31   31   24   24
 -0.5190663646528242   31   31   25   25
 -0.5163203176737943   31   31   26   26
 -0.5162679311509681   31   31   27   27
 -0.5131511600220069   31   31   28   28
 -0.51000486167267   31   31   29   29
 -0.5097009137366281   31   31   30   30
 -0.5085951214332554   31   31   31   31
 -0.581714980423234   32   32    1    1
 -0.5766530360764975   32   32    2    2
 -0.5755481132479707   32   32    3    3
 -0.5747701317747627   32   32    4    4
 -0.5721566602317699   32   32    5    5
 -0.559819423916408   32   32    6    6
 -0.5310415819179155   32   32    7    7
 -0.530270837302423   32   32    8    8
 -0.5245785315382991   32   32    9    9
 -0.5239257763595134   32   32   10   10
 -0.5233821844476496   32   32   11   11
 -0.5205911934023013   32   32   12   12
 -0.5193566126236179   32   32   13   13
 -0.5180334427144703   32   32   14   14
 -0.517731181115054   32   32   15   15
 -0.5166523329801468   32   32   16   16
 -0.5157419049559849   32   32   17   17
 -0.5153477310376242   32   32   18   18
 -0.5135983674158416   32   32   19   19
 -0.5132693373841329   32   32   20   20
 -0.5130394176002251   32   32   21   21
 -0.5125563239198444   32   32   22   22
 -0.5116783696895607   32   32   23   23
 -0.5111859881991985   32   32   24   24
 -0.5106856784135639   32   32   25   25
 -0.5079839682663856   32   32   26   26
 -0.5079324275602813   32   32   27   27
 -0.5048659788615336   32   32   28   28
 -0.5017704796798494   32   32   29   29
 -0.5014714391939111   32   32   30   30
 -0.5003835006737374   32   32   31   31
 -0.4923044622231258   32   32   32   32
 -0.5782978522380607   33   33    1    1
 -0.5732656429218481   33   33    2    2
 -0.5721672106652799   33   33    3    3
 -0.5713937992349779   33   33    4    4
 -0.5687956798276036   33   33    5    5
 -0.5565309152885567   33   33    6    6
 -0.5279221209823377   33   33    7    7
 -0.5271559038987771   33   33    8    8
 -0.5214970360537714   33   33    9    9
 -0.5208481153097081   33   33   10   10
 -0.5203077165823174   33   33   11   11
 -0.5175331204631556   33   33   12   12
 -0.5163057918971841   33   33   13   13
 -0.5149903945937668   33   33   14   14
 -0.5146899085488154   33   33   15   15
 -0.5136173978170925   33   33   16   16
 -0.5127123178574753   33   33   17   17
 -0.5123204594077747   33   33   18   18
 -0.5105813719520517   33   33   19   19
 -0.5102542747187629   33   33   20   20
 -0.5100257055367828   33   33   21   21
 -0.5095454496602869   33   33   22   22
 -0.5086726527359805   33   33   23   23
 -0.5081831636082447   33   33   24   24
 -0.5076857927578745   33   33   25   25
 -0.5049999530802609   33   33   26   26
 -0.5049487151361713   33   33   27   27
 -0.5019002794655035   33   33   28   28
 -0.4988229639611474   33   33   29   29
 -0.4985256801081092   33   33   30   30
 -0.4974441323901428   33   33   31   31
 -0.4894125520778426   33   33   32   32
 -0.4865376296808537   33   33   33   33
 -0.5670225075908113   34   34    1    1
 -0.5620884136214874   34   34    2    2
 -0.561011398014171   34   34    3    3
 -0.5602530661495237   34   34    4    4
 -0.5577056034956536   34   34    5    5
 -0.5456799708272507   34   34    6    6
 -0.5176289756110621   34   34    7    7
 -0.5168776978216012   34   34    8    8
 -0.5113291635789403   34   34    9    9
 -0.5106928951471927   34   34   10   10
 -0.5101630328274244   34   34   11   11
 -0.5074425343110452   34   34   12   12
 -0.506239135546167   34   34   13   13
 -0.5049493851613518   34   34   14   14
 -0.5046547578338508   34   34   15   15
 -0.5036031583472437   34   34   16   16
 -0.5027157251563954   34   34   17   17
 -0.5023315069548061   34   34   18   18
 -0.500626327303442   34   34   19   19
 -0.5003056076384329   34   34   20   20
 -0.500081494977072   34   34   21   21
 -0.4996106028748067   34   34   22   22
 -0.4987548232817777   34   34   23   23
 -0.4982748779533054   34   34   24   24
 -0.4977872045758443   34   34   25   25
 -0.4951537319750149   34   34   26   26
 -0.4951034930411697   34   34   27   27
 -0.4921144941515461   34   34   28   28
 -0.4890971785119061   34   34   29   29
 -0.4888056909416797   34   34   30   30
 -0.4877452306671914   34   34   31   31
 -0.4798702458458354   34   34   32   32
 -0.4770513771601558   34   34   33   33
 -0.4677500825571949   34   34   34   34
 -0.5667572148906901   35   35    1    1
 -0.561825429434863   35   35    2    2
 -0.56074891773061   35   35    3    3
 -0.559990940666531   35   35    4    4
 -0.5574446698934713   35   35    5    5
 -0.5454246636552693   35   35    6    6
 -0.5173867926522511   35   35    7    7
 -0.5166358663629699   35   35    8    8
 -0.5110899281118458   35   35    9    9
 -0.5104539573708742   35   35   10   10
 -0.5099243429576767   35   35   11   11
 -0.5072051172803603   35   35   12   12
 -0.5060022815494064   35   35   13   13
 -0.5047131345998297   35   35   14   14
 -0.5044186451195538   35   35   15   15
 -0.503367537644575   35   35   16   16
 -0.5024805196569051   35   35   17   17
 -0.5020964812194042   35   35   18   18
 -0.5003920993700812   35   35   19   19
 -0.5000715297601136   35   35   20   20
 -0.4998475219542959   35   35   21   21
 -0.4993768501682184   35   35   22   22
 -0.4985214709686057   35   35   23   23
 -0.4980417501920524   35   35   24   24
 -0.4975543049822306   35   35   25   25
 -0.4949220645036674   35   35   26   26
 -0.4948718490751015   35   35   27   27
 -0.491884248647753   35   35   28   28
 -0.4888683447189401   35   35   29   29
 -0.4885769935269412   35   35   30   30
 -0.4875170294097762   35   35   31   31
 -0.479645729055895   35   35   32   32
 -0.4768281792337082   35   35   33   33
 -0.4675312364254765   35   35   34   34
 -0.4673124926852512   35   35   35   35
 -0.3436819533594181    1    1  0  0
 -0.337726701190788    2    2  0  0
 -0.3364337072707305    3    3  0  0
 -0.3355247918011452    4    4  0  0
 -0.3324804759734263    5    5  0  0
 -0.3182967162016688    6    6  0  0
 -0.2864133715672779    7    7  0  0
 -0.2855825840209133    8    8  0  0
 -0.2794841981608507    9    9  0  0
 -0.2787890829735246   10   10  0  0
 -0.2782108756034812   11   11  0  0
 -0.2752516089577924   12   12  0  0
 -0.2739476398993405   13   13  0  0
 -0.2725535398955807   14   14  0  0
 -0.2722355741895585   15   15  0  0
 -0.2711021874232462   16   16  0  0
 -0.2701475742536276   17   17  0  0
 -0.2697347924557892   18   18  0  0
 -0.2679066545741201   19   19  0  0
 -0.2675635027855447   20   20  0  0
 -0.2673238455152214   21   21  0  0
 -0.2668206418482099   22   22  0  0
 -0.2659073541867524   23   23  0  0
 -0.2653958419868616   24   24  0  0
 -0.2648765978669114   25   25  0  0
 -0.2620814270607911   26   26  0  0
 -0.2620282475221095   27   27  0  0
 -0.2588740059970161   28   28  0  0
 -0.2557092547376054   29   29  0  0
 -0.2554045551320209   30   30  0  0
 -0.2542975607166277   31   31  0  0
 -0.2461522311115629   32   32  0  0
 -0.2432688148404268   33   33  0  0
 -0.2338750412785974   34   34  0  0
 -0.2336562463426256   35   35  0  0
 -1489.706242409672  0  0  0  0
