 &FCI NORB=  45,NELEC=68,MS2=0,
  ORBSYM=1,1,1,1,1,1,1,1,1,1,1,1,1,1,1,1,1,1,1,1,1,1,1,1,1,1,1,1,1,1,1,1,1,1,1,1,1,1,1,1,1,1,1,1,1,
  ISYM=1,
 &END
 -1.597577849692656    1    1    1    1
 -1.59589354225832    2    2    1    1
 -1.594211010569395    2    2    2    2
 -1.12048940479988    3    3    1    1
 -1.119308086071054    3    3    2    2
 -0.7858750085389092    3    3    3    3
 -1.120333305976265    4    4    1    1
 -1.119152151820583    4    4    2    2
 -0.785765525875516    4    4    3    3
 -0.7856560584644892    4    4    4    4
 -1.120128411555223    5    5    1    1
 -1.118947473417306    5    5    2    2
 -0.7856218195591548    5    5    3    3
 -0.7855123721682966    5    5    4    4
 -0.7853687121504628    5    5    5    5
 -1.118816485497651    6    6    1    1
 -1.117636930507862    6    6    2    2
 -0.7847016770774139    6    6    3    3
 -0.7845923578744336    6    6    4    4
 -0.7844488661152734    6    6    5    5
 -0.7835300974297611    6    6    6    6
 -1.118693574998081    7    7    1    1
 -1.117514149591378    7    7    2    2
 -0.7846154716305035    7    7    3    3
 -0.7845061644370689    7    7    4    4
 -0.7843626884415698    7    7    5    5
 -0.7834440206897849    7    7    6    6
 -0.7833579534059931    7    7    7    7
 -1.118469103029179    8    8    1    1
 -1.117289914280618    8    8    2    2
 -0.784458034255619    8    8    3    3
 -0.7843487489952692    8    8    4    4
 -0.7842053017890113    8    8    5    5
 -0.7832868183729226    8    8    6    6
 -0.7832007683590009    8    8    7    7
 -0.7830436148520458    8    8    8    8
 -1.02919723391369    9    9    1    1
 -1.028112163441029    9    9    2    2
 -0.721845634171435    9    9    3    3
 -0.7217450716370253    9    9    4    4
 -0.7216130738308333    9    9    5    5
 -0.720767900201384    9    9    6    6
 -0.7206887183660821    9    9    7    7
 -0.7205441082429951    9    9    8    8
 -0.6630330700312161    9    9    9    9
 -1.003386156223845   10   10    1    1
 -1.002328298065157   10   10    2    2
 -0.7037425795481492   10   10    3    3
 -0.7036445390059318   10   10    4    4
 -0.7035158515522343   10   10    5    5
 -0.7026918739010604   10   10    6    6
 -0.7026146778547163   10   10    7    7
 -0.7024736943864617   10   10    8    8
 -0.646404966575832   10   10    9    9
 -0.6301938767461933   10   10   10   10
 -0.9808424068508133   11   11    1    1
 -0.9798083163004913   11   11    2    2
 -0.6879311232727597   11   11    3    3
 -0.687835285473124   11   11    4    4
 -0.6877094893267118   11   11    5    5
 -0.686904024533765   11   11    6    6
 -0.686828562902741   11   11    7    7
 -0.6866907470045732   11   11    8    8
 -0.6318817528862883   11   11    9    9
 -0.6160348884786533   11   11   10   10
 -0.602194019691733   11   11   11   11
 -0.9721499902932428   12   12    1    1
 -0.9711250640549031   12   12    2    2
 -0.681834543593254   12   12    3    3
 -0.6817395551268757   12   12    4    4
 -0.6816148738104285   12   12    5    5
 -0.6808165472034468   12   12    6    6
 -0.680741754328103   12   12    7    7
 -0.6806051597812827   12   12    8    8
 -0.6262818936501341   12   12    9    9
 -0.6105754672431405   12   12   10   10
 -0.5968572589327396   12   12   11   11
 -0.5915677935876281   12   12   12   12
 -0.9620113217750408   13   13    1    1
 -0.9609970846150222   13   13    2    2
 -0.6747236095905016   13   13    3    3
 -0.6746296117701999   13   13    4    4
 -0.6745062307701136   13   13    5    5
 -0.6737162300067964   13   13    6    6
 -0.6736422171552948   13   13    7    7
 -0.67350704716934   13   13    8    8
 -0.6197503248777523   13   13    9    9
 -0.6042077026702506   13   13   10   10
 -0.5906325631950207   13   13   11   11
 -0.5853982623166152   13   13   12   12
 -0.5792930738251053   13   13   13   13
 -0.951086074143521   14   14    1    1
 -0.9500833553428808   14   14    2    2
 -0.6670609944520357   14   14    3    3
 -0.6669680641342054   14   14    4    4
 -0.6668460843317439   14   14    5    5
 -0.6660650553484597   14   14    6    6
 -0.6659918830366818   14   14    7    7
 -0.6658582481320046   14   14    8    8
 -0.6127120233362372   14   14    9    9
 -0.5973459136006954   14   14   10   10
 -0.5839249425401634   14   14   11   11
 -0.5787500859031924   14   14   12   12
 -0.5727142320386222   14   14   13   13
 -0.5662101040044816   14   14   14   14
 -0.9499885666973836   15   15    1    1
 -0.9489870049858651   15   15    2    2
 -0.6662912382455869   15   15    3    3
 -0.6661984151648602   15   15    4    4
 -0.6660765761212061   15   15    5    5
 -0.6652964484076892   15   15    6    6
 -0.6652233605332291   15   15    7    7
 -0.6650898798367848   15   15    8    8
 -0.6120049832204885   15   15    9    9
 -0.5966566052342716   15   15   10   10
 -0.5832511213268728   15   15   11   11
 -0.5780822362248094   15   15   12   12
 -0.5720533474444099   15   15   13   13
 -0.565556724860241   15   15   14   14
 -0.5649040996840117   15   15   15   15
 -0.944537015209458   16   16    1    1
 -0.9435412010042042   16   16    2    2
 -0.6624676964487869   16   16    3    3
 -0.6623754060374224   16   16    4    4
 -0.6622542661725194   16   16    5    5
 -0.6614786152564572   16   16    6    6
 -0.6614059468000035   16   16    7    7
 -0.6612732320884509   16   16    8    8
 -0.6084929655037991   16   16    9    9
 -0.5932326648648063   16   16   10   10
 -0.5799041089208627   16   16   11   11
 -0.5747648856950123   16   16   12   12
 -0.5687705939600443   16   16   13   13
 -0.5623112525324667   16   16   14   14
 -0.5616623724747317   16   16   15   15
 -0.5584392480606967   16   16   16   16
 -0.9439608722643046   17   17    1    1
 -0.9429656654797445   17   17    2    2
 -0.6620636084315309   17   17    3    3
 -0.6619713743149102   17   17    4    4
 -0.6618503083421654   17   17    5    5
 -0.6610751305529325   17   17    6    6
 -0.661002506422342   17   17    7    7
 -0.6608698726633022   17   17    8    8
 -0.6081218006647241   17   17    9    9
 -0.5928708084111229   17   17   10   10
 -0.579550382538688   17   17   11   11
 -0.574414294104971   17   17   12   12
 -0.5684236587316264   17   17   13   13
 -0.561968257333856   17   17   14   14
 -0.561319773076033   17   17   15   15
 -0.5580986146838295   17   17   16   16
 -0.5577581890844381   17   17   17   17
 -0.9360549151332963   18   18    1    1
 -0.9350680435058455   18   18    2    2
 -0.6565186259433217   18   18    3    3
 -0.6564271643152578   18   18    4    4
 -0.6563071123065646   18   18    5    5
 -0.6555384268652147   18   18    6    6
 -0.6554664109836311   18   18    7    7
 -0.6553348880723434   18   18    8    8
 -0.6030285970926796   18   18    9    9
 -0.5879053365009566   18   18   10   10
 -0.5746964732144386   18   18   11   11
 -0.5696034010710903   18   18   12   12
 -0.5636629390765804   18   18   13   13
 -0.5572616036133352   18   18   14   14
 -0.5566185506068417   18   18   15   15
 -0.5534243703881083   18   18   16   16
 -0.55308679595583   18   18   17   17
 -0.5484545271541956   18   18   18   18
 -0.9344965854954567   19   19    1    1
 -0.9335113567965146   19   19    2    2
 -0.65542566396421   19   19    3    3
 -0.6553343546000396   19   19    4    4
 -0.6552145024520599   19   19    5    5
 -0.6544470967062557   19   19    6    6
 -0.6543752007155896   19   19    7    7
 -0.6542438967615953   19   19    8    8
 -0.6020246844801589   19   19    9    9
 -0.5869266008570301   19   19   10   10
 -0.5737397274803013   19   19   11   11
 -0.5686551342041012   19   19   12   12
 -0.56272456179816   19   19   13   13
 -0.5563338831784534   19   19   14   14
 -0.5556919007165856   19   19   15   15
 -0.552503038119311   19   19   16   16
 -0.552166025675688   19   19   17   17
 -0.5475414686029781   19   19   18   18
 -0.54662993009741   19   19   19   19
 -0.9313657215658679   20   20    1    1
 -0.9303837936997421   20   20    2    2
 -0.6532297773214094   20   20    3    3
 -0.6531387738729578   20   20    4    4
 -0.6530193232681971   20   20    5    5
 -0.6522544885783027   20   20    6    6
 -0.6521828334623144   20   20    7    7
 -0.6520519694187701   20   20    8    8
 -0.6000077082829034   20   20    9    9
 -0.5849602080927749   20   20   10   10
 -0.5718175149804154   20   20   11   11
 -0.5667499567259929   20   20   12   12
 -0.5608392536438306   20   20   13   13
 -0.5544699858516078   20   20   14   14
 -0.5538301542373347   20   20   15   15
 -0.5506519753547331   20   20   16   16
 -0.5503160920111194   20   20   17   17
 -0.5457070286910397   20   20   18   18
 -0.5447985441324542   20   20   19   19
 -0.5429732938991295   20   20   20   20
 -0.9285906136249358   21   21    1    1
 -0.9276116115222941   21   21    2    2
 -0.6512834064164869   21   21    3    3
 -0.6511926741229495   21   21    4    4
 -0.6510735794345749   21   21    5    5
 -0.6503110236548576   21   21    6    6
 -0.6502395820432713   21   21    7    7
 -0.6501091079237257   21   21    8    8
 -0.5982199184627273   21   21    9    9
 -0.5832172539760201   21   21   10   10
 -0.5701137209821583   21   21   11   11
 -0.5650612620821863   21   21   12   12
 -0.5591681705984327   21   21   13   13
 -0.5528178807492657   21   21   14   14
 -0.5521799555845781   21   21   15   15
 -0.5490112464400723   21   21   16   16
 -0.5486763638983053   21   21   17   17
 -0.5440810337959334   21   21   18   18
 -0.5431752561683143   21   21   19   19
 -0.5413554444714307   21   21   20   20
 -0.5397424156063638   21   21   21   21
 -0.9254615319473795   22   22    1    1
 -0.9244858287985466   22   22    2    2
 -0.6490887697875865   22   22    3    3
 -0.6489983432356248   22   22    4    4
 -0.6488796498618896   22   22    5    5
 -0.6481196636745024   22   22    6    6
 -0.6480484628004751   22   22    7    7
 -0.6479184283409594   22   22    8    8
 -0.5962040904341586   22   22    9    9
 -0.5812519805857076   22   22   10   10
 -0.5681926027064902   22   22   11   11
 -0.5631571691310677   22   22   12   12
 -0.5572839356604313   22   22   13   13
 -0.5509550444505815   22   22   14   14
 -0.5503192689091132   22   22   15   15
 -0.5471612373975495   22   22   16   16
 -0.546827483313049   22   22   17   17
 -0.5422476381434501   22   22   18   18
 -0.5413449127243467   22   22   19   19
 -0.5395312332663138   22   22   20   20
 -0.5379236398417877   22   22   21   21
 -0.5361109928252703   22   22   22   22
 -0.9218544019535745   23   23    1    1
 -0.9208825017592371   23   23    2    2
 -0.6465588455397184   23   23    3    3
 -0.6464687714392813   23   23    4    4
 -0.6463505406913967   23   23    5    5
 -0.6455935166681587   23   23    6    6
 -0.6455225933105916   23   23    7    7
 -0.6453930656805689   23   23    8    8
 -0.5938802924341391   23   23    9    9
 -0.5789864607550589   23   23   10   10
 -0.5659779838285256   23   23   11   11
 -0.5609621766371879   23   23   12   12
 -0.5551118350057921   23   23   13   13
 -0.5488076116319596   23   23   14   14
 -0.5481743141243651   23   23   15   15
 -0.5450285915308855   23   23   16   16
 -0.5446961383047429   23   23   17   17
 -0.5401341437926894   23   23   18   18
 -0.5392349368860504   23   23   19   19
 -0.5374283265252694   23   23   20   20
 -0.5358269989456858   23   23   21   21
 -0.5340214170023192   23   23   22   22
 -0.5319399856255336   23   23   23   23
 -0.9198186530430987   24   24    1    1
 -0.9188488991147633   24   24    2    2
 -0.6451310371324726   24   24    3    3
 -0.6450411619444141   24   24    4    4
 -0.6449231922877774   24   24    5    5
 -0.6441678400153356   24   24    6    6
 -0.6440970732791912   24   24    7    7
 -0.6439678316875398   24   24    8    8
 -0.592568815094861   24   24    9    9
 -0.5777078737524211   24   24   10   10
 -0.564728123697153   24   24   11   11
 -0.5597233930098741   24   24   12   12
 -0.5538859708010864   24   24   13   13
 -0.547595669165695   24   24   14   14
 -0.5469637701812387   24   24   15   15
 -0.5438249943478207   24   24   16   16
 -0.5434932752845693   24   24   17   17
 -0.5389413551132554   24   24   18   18
 -0.5380441339426247   24   24   19   19
 -0.536241513154455   24   24   20   20
 -0.5346437218175455   24   24   21   21
 -0.532842127175716   24   24   22   22
 -0.5307652922641082   24   24   23   23
 -0.529593193000759   24   24   24   24
 -0.9170531934602307   25   25    1    1
 -0.9160863551232299   25   25    2    2
 -0.6431914332736672   25   25    3    3
 -0.6431018282977851   25   25    4    4
 -0.642984213320102   25   25    5    5
 -0.642231132034635   25   25    6    6
 -0.642160578060591   25   25    7    7
 -0.6420317250372698   25   25    8    8
 -0.5907872409739282   25   25    9    9
 -0.575970979452353   25   25   10   10
 -0.5630302533656191   25   25   11   11
 -0.5580405695361017   25   25   12   12
 -0.5522206976945883   25   25   13   13
 -0.5459493080206789   25   25   14   14
 -0.5453193088575581   25   25   15   15
 -0.542189969838319   25   25   16   16
 -0.541859248097376   25   25   17   17
 -0.5373210133967975   25   25   18   18
 -0.5364264897458095   25   25   19   19
 -0.5346292885856463   25   25   20   20
 -0.5330363010514748   25   25   21   21
 -0.5312401229525153   25   25   22   22
 -0.5291695321010701   25   25   23   23
 -0.5280009567857613   25   25   24   24
 -0.526413507671878   25   25   25   25
 -0.9156039127767351   26   26    1    1
 -0.9146386023992197   26   26    2    2
 -0.6421749547022158   26   26    3    3
 -0.6420854913350882   26   26    4    4
 -0.6419680622322449   26   26    5    5
 -0.6412161710916549   26   26    6    6
 -0.6411457286187892   26   26    7    7
 -0.6410170792305451   26   26    8    8
 -0.5898535802631809   26   26    9    9
 -0.575060733873659   26   26   10   10
 -0.5621404588845076   26   26   11   11
 -0.5571586605870864   26   26   12   12
 -0.5513479862794788   26   26   13   13
 -0.5450865077033965   26   26   14   14
 -0.5444575041702175   26   26   15   15
 -0.541333110655367   26   26   16   16
 -0.5410029115761781   26   26   17   17
 -0.5364718489523511   26   26   18   18
 -0.5355787389770993   26   26   19   19
 -0.5337843780544974   26   26   20   20
 -0.5321939080253941   26   26   21   21
 -0.5304005685471836   26   26   22   22
 -0.5283332499893697   26   26   23   23
 -0.5271665214520272   26   26   24   24
 -0.5255815810904749   26   26   25   25
 -0.5247509692584595   26   26   26   26
 -0.9149899525088149   27   27    1    1
 -0.9140252894223497   27   27    2    2
 -0.6417443428385717   27   27    3    3
 -0.6416549394613067   27   27    4    4
 -0.641537589100813   27   27    5    5
 -0.6407862021425225   27   27    6    6
 -0.6407158069050158   27   27    7    7
 -0.640587243782909   27   27    8    8
 -0.5894580526151243   27   27    9    9
 -0.5746751256020989   27   27   10   10
 -0.5617635143324701   27   27   11   11
 -0.5567850565911285   27   27   12   12
 -0.550978278644278   27   27   13   13
 -0.5447209987167712   27   27   14   14
 -0.5440924169633296   27   27   15   15
 -0.5409701185175942   27   27   16   16
 -0.5406401408541424   27   27   17   17
 -0.5361121165445729   27   27   18   18
 -0.5352196054462285   27   27   19   19
 -0.5334264477363886   27   27   20   20
 -0.531837044200549   27   27   21   21
 -0.5300449072501686   27   27   22   22
 -0.5279789749374744   27   27   23   23
 -0.526813028752583   27   27   24   24
 -0.5252291511763634   27   27   25   25
 -0.5243990963129845   27   27   26   26
 -0.5240474593167063   27   27   27   27
 -0.9112568026585671   28   28    1    1
 -0.9102960753878415   28   28    2    2
 -0.6391260323415041   28   28    3    3
 -0.6390369937291237   28   28    4    4
 -0.6389201221569265   28   28    5    5
 -0.638171800849907   28   28    6    6
 -0.6381016928242649   28   28    7    7
 -0.6379736542384098   28   28    8    8
 -0.5870530696589574   28   28    9    9
 -0.5723304568402177   28   28   10   10
 -0.5594715248153669   28   28   11   11
 -0.5545133791317923   28   28   12   12
 -0.5487302927808585   28   28   13   13
 -0.5424985424928415   28   28   14   14
 -0.5418725253466639   28   28   15   15
 -0.5387629658473435   28   28   16   16
 -0.5384343344894564   28   28   17   17
 -0.5339247844737597   28   28   18   18
 -0.5330359148117654   28   28   19   19
 -0.5312500731674382   28   28   20   20
 -0.5296671543821202   28   28   21   21
 -0.5278823293325641   28   28   22   22
 -0.5258248260030325   28   28   23   23
 -0.5246636368669083   28   28   24   24
 -0.5230862214953503   28   28   25   25
 -0.5222595532475079   28   28   26   26
 -0.5219093509266558   28   28   27   27
 -0.5197799659974415   28   28   28   28
 -0.9110096945943804   29   29    1    1
 -0.9100492278467647   29   29    2    2
 -0.6389527187419102   29   29    3    3
 -0.6388637042743801   29   29    4    4
 -0.6387468643945752   29   29    5    5
 -0.6379987460119442   29   29    6    6
 -0.6379286569976921   29   29    7    7
 -0.6378006531324196   29   29    8    8
 -0.5868938768307722   29   29    9    9
 -0.5721752563842625   29   29   10   10
 -0.5593198113520913   29   29   11   11
 -0.5543630101827945   29   29   12   12
 -0.548581492047614   29   29   13   13
 -0.5423514316408089   29   29   14   14
 -0.5417255842534575   29   29   15   15
 -0.5386168679821121   29   29   16   16
 -0.5382883257401124   29   29   17   17
 -0.5337799985917474   29   29   18   18
 -0.5328913699670336   29   29   19   19
 -0.5311060125943962   29   29   20   20
 -0.5295235230536068   29   29   21   21
 -0.5277391820000678   29   29   22   22
 -0.5256822366094874   29   29   23   23
 -0.5245213623562797   29   29   24   24
 -0.5229443747368742   29   29   25   25
 -0.5221179306589803   29   29   26   26
 -0.5217678233034742   29   29   27   27
 -0.5196390158055462   29   29   28   28
 -0.5194981038355099   29   29   29   29
 -0.909179561823833   30   30    1    1
 -0.9082210245635545   30   30    2    2
 -0.6376691228412973   30   30    3    3
 -0.6375802871954581   30   30    4    4
 -0.6374636820359797   30   30    5    5
 -0.6367170665527979   30   30    6    6
 -0.6366471183407818   30   30    7    7
 -0.6365193716232322   30   30    8    8
 -0.5857148622459715   30   30    9    9
 -0.5710258101232417   30   30   10   10
 -0.5581961904707267   30   30   11   11
 -0.5532493470486535   30   30   12   12
 -0.5474794434394932   30   30   13   13
 -0.5412618986379345   30   30   14   14
 -0.5406373085191057   30   30   15   15
 -0.5375348373662879   30   30   16   16
 -0.5372069551347439   30   30   17   17
 -0.532707684791486   30   30   18   18
 -0.5318208413380788   30   30   19   19
 -0.5300390705804403   30   30   20   20
 -0.5284597601122611   30   30   21   21
 -0.5266790036320315   30   30   22   22
 -0.5246261904512277   30   30   23   23
 -0.523467648285182   30   30   24   24
 -0.5218938286855442   30   30   25   25
 -0.5210690448560527   30   30   26   26
 -0.5207196408332865   30   30   27   27
 -0.518595109909348   30   30   28   28
 -0.5184544810182029   30   30   29   29
 -0.5174129547409538   30   30   30   30
 -0.9071006385696748   31   31    1    1
 -0.9061442930935982   31   31    2    2
 -0.6362110333465509   31   31    3    3
 -0.6361224008316418   31   31    4    4
 -0.6360060623006577   31   31    5    5
 -0.6352611540229116   31   31    6    6
 -0.6351913657539591   31   31    7    7
 -0.6350639111411081   31   31    8    8
 -0.5843755709788135   31   31    9    9
 -0.5697201067339043   31   31   10   10
 -0.5569198231946914   31   31   11   11
 -0.5519842911881588   31   31   12   12
 -0.5462275809978687   31   31   13   13
 -0.5400242531882161   31   31   14   14
 -0.5394010912525286   31   31   15   15
 -0.5363057141872768   31   31   16   16
 -0.5359785816888156   31   31   17   17
 -0.5314895993438103   31   31   18   18
 -0.5306047837400772   31   31   19   19
 -0.5288270871662601   31   31   20   20
 -0.5272513879377038   31   31   21   21
 -0.5254747033220564   31   31   22   22
 -0.523426584088672   31   31   23   23
 -0.522270691036565   31   31   24   24
 -0.5207004701211706   31   31   25   25
 -0.5198775722362765   31   31   26   26
 -0.5195289671581617   31   31   27   27
 -0.5174092941709031   31   31   28   28
 -0.5172689868407392   31   31   29   29
 -0.5162298421097637   31   31   30   30
 -0.5150494347751561   31   31   31   31
 -0.9030679503964513   32   32    1    1
 -0.9021158565358262   32   32    2    2
 -0.6333826363630625   32   32    3    3
 -0.6332943978808322   32   32    4    4
 -0.6331785765548836   32   32    5    5
 -0.6324369799083657   32   32    6    6
 -0.6323675018964175   32   32    7    7
 -0.6322406139072553   32   32    8    8
 -0.5817776183883238   32   32    9    9
 -0.5671873077932088   32   32   10   10
 -0.5544439303456109   32   32   11   11
 -0.5495303401840127   32   32   12   12
 -0.5437992225422381   32   32   13   13
 -0.5376234728045534   32   32   14   14
 -0.5370030812536072   32   32   15   15
 -0.5339214652750001   32   32   16   16
 -0.5335957871061927   32   32   17   17
 -0.5291267613847886   32   32   18   18
 -0.528245879396874   32   32   19   19
 -0.5264760859108114   32   32   20   20
 -0.5249073917524462   32   32   21   21
 -0.523138605725701   32   32   22   22
 -0.5210995917953655   32   32   23   23
 -0.5199488374853587   32   32   24   24
 -0.5183855972852738   32   32   25   25
 -0.5175663577492189   32   32   26   26
 -0.5172193024611889   32   32   27   27
 -0.5151090528827821   32   32   28   28
 -0.5149693693155026   32   32   29   29
 -0.5139348442997924   32   32   30   30
 -0.5127596846901838   32   32   31   31
 -0.5104801141241037   32   32   32   32
 -0.8955532778330308   33   33    1    1
 -0.8946091066028224   33   33    2    2
 -0.6281120882082587   33   33    3    3
 -0.6280245839822948   33   33    4    4
 -0.6279097264369121   33   33    5    5
 -0.6271743008165837   33   33    6    6
 -0.6271054009499566   33   33    7    7
 -0.6269795688300569   33   33    8    8
 -0.5769364895397188   33   33    9    9
 -0.5624675888636168   33   33   10   10
 -0.5498302525049855   33   33   11   11
 -0.5449575496555313   33   33   12   12
 -0.5392741221930855   33   33   13   13
 -0.5331497625386077   33   33   14   14
 -0.5325345334334823   33   33   15   15
 -0.5294785604145609   33   33   16   16
 -0.5291555923018447   33   33   17   17
 -0.5247237545516881   33   33   18   18
 -0.5238502026209448   33   33   19   19
 -0.5220951360649509   33   33   20   20
 -0.5205394954347804   33   33   21   21
 -0.5187854279547625   33   33   22   22
 -0.516763381210597   33   33   23   23
 -0.515622202638315   33   33   24   24
 -0.5140719705825635   33   33   25   25
 -0.5132595481601729   33   33   26   26
 -0.5129153808130225   33   33   27   27
 -0.5108226911918723   33   33   28   28
 -0.5106841699693203   33   33   29   29
 -0.509658253515954   33   33   30   30
 -0.5084928727271661   33   33   31   31
 -0.5062322710840578   33   33   32   32
 -0.50201977549437   33   33   33   33
 -0.892115260895638   34   34    1    1
 -0.8911747143260295   34   34    2    2
 -0.6257007743855161   34   34    3    3
 -0.6256136060870938   34   34    4    4
 -0.6254991894782764   34   34    5    5
 -0.624766587146971   34   34    6    6
 -0.6246979517860014   34   34    7    7
 -0.6245726027339104   34   34    8    8
 -0.5747216381490377   34   34    9    9
 -0.5603082833872003   34   34   10   10
 -0.5477194615921577   34   34   11   11
 -0.5428654649831272   34   34   12   12
 -0.5372038561219438   34   34   13   13
 -0.5311030078014579   34   34   14   14
 -0.5304901405525573   34   34   15   15
 -0.5274458993727785   34   34   16   16
 -0.5271241711302846   34   34   17   17
 -0.5227093471453903   34   34   18   18
 -0.5218391487687102   34   34   19   19
 -0.520090819889519   34   34   20   20
 -0.5185411513427158   34   34   21   21
 -0.5167938177040614   34   34   22   22
 -0.5147795335700353   34   34   23   23
 -0.5136427359668783   34   34   24   24
 -0.5120984552310499   34   34   25   25
 -0.5112891516873657   34   34   26   26
 -0.5109463055940122   34   34   27   27
 -0.5088616497800517   34   34   28   28
 -0.5087236603386021   34   34   29   29
 -0.5077016823646431   34   34   30   30
 -0.5065407754569627   34   34   31   31
 -0.5042888522330283   34   34   32   32
 -0.5000925283570115   34   34   33   33
 -0.4981726798953818   34   34   34   34
 -0.8910702607010724   35   35    1    1
 -0.8901308158628111   35   35    2    2
 -0.6249678450661406   35   35    3    3
 -0.624880778874355   35   35    4    4
 -0.6247664962901236   35   35    5    5
 -0.6240347521097908   35   35    6    6
 -0.6239661971464655   35   35    7    7
 -0.6238409949249349   35   35    8    8
 -0.5740484244399886   35   35    9    9
 -0.5596519531002724   35   35   10   10
 -0.5470778775177449   35   35   11   11
 -0.5422295667518148   35   35   12   12
 -0.5365745897493392   35   35   13   13
 -0.5304808878010336   35   35   14   14
 -0.5298687384486005   35   35   15   15
 -0.5268280632123322   35   35   16   16
 -0.5265067118337826   35   35   17   17
 -0.5220970592568054   35   35   18   18
 -0.5212278802074619   35   35   19   19
 -0.5194815992744265   35   35   20   20
 -0.5179337459683256   35   35   21   21
 -0.5161884591100286   35   35   22   22
 -0.5141765344551014   35   35   23   23
 -0.5130410684665559   35   35   24   24
 -0.5114985966602908   35   35   25   25
 -0.5106902411133484   35   35   26   26
 -0.5103477966208305   35   35   27   27
 -0.5082655827174914   35   35   28   28
 -0.5081277549132198   35   35   29   29
 -0.507106974057199   35   35   30   30
 -0.505947427005131   35   35   31   31
 -0.5036981416244332   35   35   32   32
 -0.4995067332110913   35   35   33   33
 -0.4975891336091147   35   35   34   34
 -0.4970062708735157   35   35   35   35
 -0.8909964850986877   36   36    1    1
 -0.8900571180411714   36   36    2    2
 -0.624916101246069   36   36    3    3
 -0.6248290422628741   36   36    4    4
 -0.6247147691405974   36   36    5    5
 -0.6239830855445642   36   36    6    6
 -0.6239145362572042   36   36    7    7
 -0.6237893444017129   36   36    8    8
 -0.5740008964613557   36   36    9    9
 -0.5596056170684389   36   36   10   10
 -0.547032582548599   36   36   11   11
 -0.5421846731955127   36   36   12   12
 -0.5365301643933051   36   36   13   13
 -0.5304369669692236   36   36   14   14
 -0.5298248682993115   36   36   15   15
 -0.5267844448138389   36   36   16   16
 -0.526463120041375   36   36   17   17
 -0.5220538325588122   36   36   18   18
 -0.5211847254726021   36   36   19   19
 -0.5194385891217993   36   36   20   20
 -0.5178908639692404   36   36   21   21
 -0.5161457216108724   36   36   22   22
 -0.5141339635319827   36   36   23   23
 -0.5129985915536304   36   36   24   24
 -0.5114562474553495   36   36   25   25
 -0.5106479588356966   36   36   26   26
 -0.5103055426956554   36   36   27   27
 -0.5082235011879083   36   36   28   28
 -0.508085684795003   36   36   29   29
 -0.5070649884538918   36   36   30   30
 -0.5059055374057935   36   36   31   31
 -0.5036564382532654   36   36   32   32
 -0.4994653768649499   36   36   33   33
 -0.4975479360294275   36   36   34   34
 -0.4969651215515825   36   36   35   35
 -0.4969239756365815   36   36   36   36
 -0.8837146394844934   37   37    1    1
 -0.8827829495906946   37   37    2    2
 -0.6198088503789749   37   37    3    3
 -0.619722502902599   37   37    4    4
 -0.6196091637000944   37   37    5    5
 -0.61888345993347   37   37    6    6
 -0.6188154708787662   37   37    7    7
 -0.6186913021785613   37   37    8    8
 -0.569309760210714   37   37    9    9
 -0.555032129095726   37   37   10   10
 -0.5425618501959213   37   37   11   11
 -0.5377535613442074   37   37   12   12
 -0.5321452651374595   37   37   13   13
 -0.5261018655786681   37   37   14   14
 -0.5254947694066215   37   37   15   15
 -0.5224791943855294   37   37   16   16
 -0.5221604957035429   37   37   17   17
 -0.5177872439980609   37   37   18   18
 -0.5169252398620081   37   37   19   19
 -0.5151933741570951   37   37   20   20
 -0.5136582980955289   37   37   21   21
 -0.51192741825945   37   37   22   22
 -0.5099321016727421   37   37   23   23
 -0.5088060087472248   37   37   24   24
 -0.5072762697622024   37   37   25   25
 -0.506474587041718   37   37   26   26
 -0.506134969365542   37   37   27   27
 -0.5040699437552482   37   37   28   28
 -0.503933253694167   37   37   29   29
 -0.5029208991964852   37   37   30   30
 -0.5017709239921985   37   37   31   31
 -0.4995402060488825   37   37   32   32
 -0.49538339694158   37   37   33   33
 -0.4934816267718482   37   37   34   34
 -0.4929035754609971   37   37   35   35
 -0.4928627658191528   37   37   36   36
 -0.488834747045002   37   37   37   37
 -0.8828051848076961   38   38    1    1
 -0.8818744537412083   38   38    2    2
 -0.6191709882993943   38   38    3    3
 -0.6190847296855456   38   38    4    4
 -0.618971507123485   38   38    5    5
 -0.6182465501982674   38   38    6    6
 -0.6181786311129416   38   38    7    7
 -0.6180545901981099   38   38    8    8
 -0.5687238681129301   38   38    9    9
 -0.5544609304949274   38   38   10   10
 -0.5420034850969792   38   38   11   11
 -0.5372001445855871   38   38   12   12
 -0.5315976200284036   38   38   13   13
 -0.5255604398958241   38   38   14   14
 -0.5249539685028954   38   38   15   15
 -0.5219414968917544   38   38   16   16
 -0.5216231261912156   38   38   17   17
 -0.5172543751175425   38   38   18   18
 -0.5163932580932991   38   38   19   19
 -0.5146631746983021   38   38   20   20
 -0.5131296784250987   38   38   21   21
 -0.5114005798843516   38   38   22   22
 -0.5094073167319995   38   38   23   23
 -0.5082823826992195   38   38   24   24
 -0.5067542180100298   38   38   25   25
 -0.5059533603229519   38   38   26   26
 -0.5056140921565273   38   38   27   27