 &FCI NORB=  21,NELEC=24,MS2=0,
  ORBSYM=1,1,1,1,1,1,1,1,1,1,1,1,1,1,1,1,1,1,1,1,1,
  ISYM=1,
 &END
 -0.3247355333057438    1    1    1    1
 -0.5328928553377392    2    2    1    1
 -0.87448020356504    2    2    2    2
 -0.5352189258422313    3    3    1    1
 -0.8782972984798999    3    3    2    2
 -0.8821310549652902    3    3    3    3
 -0.5394265885115228    4    4    1    1
 -0.8852020968286092    4    4    2    2
 -0.8890659926705653    4    4    3    3
 -0.8960554498950267    4    4    4    4
 -0.540619242244081    5    5    1    1
 -0.8871592483805267    5    5    2    2
 -0.8910316871639994    5    5    3    3
 -0.8980365978392637    5    5    4    4
 -0.9000221260338273    5    5    5    5
 -0.5446945421614076    6    6    1    1
 -0.893846838701162    6    6    2    2
 -0.8977484687309333    6    6    3    3
 -0.9048061838749718    6    6    4    4
 -0.9068066793926619    6    6    5    5
 -0.9136423761211397    6    6    6    6
 -0.6757877100912745    7    7    1    1
 -1.108971472159871    7    7    2    2
 -1.113812118465927    7    7    3    3
 -1.122568433770171    7    7    4    4
 -1.125050394172387    7    7    5    5
 -1.133531257264361    7    7    6    6
 -1.406341414077492    7    7    7    7
 -0.7023627750667301    8    8    1    1
 -1.152581304787035    8    8    2    2
 -1.157612307455283    8    8    3    3
 -1.166712961143728    8    8    4    4
 -1.169292523585713    8    8    5    5
 -1.17810689302051    8    8    6    6
 -1.461645193502151    8    8    7    7
 -1.519123770588343    8    8    8    8
 -0.710697308227748    9    9    1    1
 -1.166258321062    9    9    2    2
 -1.171349023731529    9    9    3    3
 -1.180557669618089    9    9    4    4
 -1.183167842236861    9    9    5    5
 -1.192086806699976    9    9    6    6
 -1.478989692338567    9    9    7    7
 -1.537150334482559    9    9    8    8
 -1.555390809193078    9    9    9    9
 -0.7984011545446095   10   10    1    1
 -1.31018083121087   10   10    2    2
 -1.315899753798224   10   10    3    3
 -1.326244795804864   10   10    4    4
 -1.329177077675446   10   10    5    5
 -1.339196690022721   10   10    6    6
 -1.661504925166093   10   10    7    7
 -1.726842901403283   10   10    8    8
 -1.747334348183398   10   10    9    9
 -1.962964745770525   10   10   10   10
 -1.019280648503659   11   11    1    1
 -1.672645335859245   11   11    2    2
 -1.679946411377987   11   11    3    3
 -1.693153432767303   11   11    4    4
 -1.696896937081682   11   11    5    5
 -1.709688497956754   11   11    6    6
 -2.121164038873761   11   11    7    7
 -2.204577914732878   11   11    8    8
 -2.230738366836341   11   11    9    9
 -2.506023403986708   11   11   10   10
 -3.199320474226841   11   11   11   11
 -1.041997699988095   12   12    1    1
 -1.709924146425991   12   12    2    2
 -1.717387943476525   12   12    3    3
 -1.730889314204561   12   12    4    4
 -1.734716251261794   12   12    5    5
 -1.747792901967024   12   12    6    6
 -2.16843913700181   12   12    7    7
 -2.253712086036886   12   12    8    8
 -2.280455584956909   12   12    9    9
 -2.561875992548204   12   12   10   10
 -3.27062480835201   12   12   11   11
 -3.343518326213536   12   12   12   12
 -1.043572764643411   13   13    1    1
 -1.712508836475054   13   13    2    2
 -1.719983915664626   13   13    3    3
 -1.733505694817587   13   13    4    4
 -1.737338416602844   13   13    5    5
 -1.750434833733985   13   13    6    6
 -2.171716909920054   13   13    7    7
 -2.257118755984443   13   13    8    8
 -2.283902679888042   13   13    9    9
 -2.565748477417614   13   13   10   10
 -3.275568624961673   13   13   11   11
 -3.348572327330888   13   13   12   12
 -3.353633967983843   13   13   13   13
 -1.046621945287611   14   14    1    1
 -1.717512559237967   14   14    2    2
 -1.725009479613463   14   14    3    3
 -1.738570767604395   14   14    4    4
 -1.742414688092299   14   14    5    5
 -1.755549371210229   14   14    6    6
 -2.178062377520173   14   14    7    7
 -2.263713756405676   14   14    8    8
 -2.290575939368067   14   14    9    9
 -2.573245252784209   14   14   10   10
 -3.285139400271622   14   14   11   11
 -3.358356409737151   14   14   12   12
 -3.363432839830027   14   14   13   13
 -3.373260342674817   14   14   14   14
 -1.051769931857458   15   15    1    1
 -1.725960434450511   15   15    2    2
 -1.733494229693368   15   15    3    3
 -1.747122221166642   15   15    4    4
 -1.750985048625814   15   15    5    5
 -1.764184336898063   15   15    6    6
 -2.188775544694096   15   15    7    7
 -2.27484821433332   15   15    8    8
 -2.301842523473411   15   15    9    9
 -2.585902193584944   15   15   10   10
 -3.301297912510753   15   15   11   11
 -3.374875052186726   15   15   12   12
 -3.379976451557248   15   15   13   13
 -3.389852292632368   15   15   14   14
 -3.406525852894321   15   15   15   15
 -1.057293120536724   16   16    1    1
 -1.735024018456552   16   16    2    2
 -1.742597376127785   16   16    3    3
 -1.756296932651501   16   16    4    4
 -1.760180045083884   16   16    5    5
 -1.773448647145539   16   16    6    6
 -2.200269522553455   16   16    7    7
 -2.286794187995321   16   16    8    8
 -2.313930253101362   16   16    9    9
 -2.599481613654573   16   16   10   10
 -3.318634110005069   16   16   11   11
 -3.392597627359851   16   16   12   12
 -3.39772581585069   16   16   13   13
 -3.407653518204568   16   16   14   14
 -3.424414636797   16   16   15   15
 -3.442397360567843   16   16   16   16
 -1.332862226082786   17   17    1    1
 -2.187234486471605   17   17    2    2
 -2.196781737057588   17   17    3    3
 -2.214051897101075   17   17    4    4
 -2.218947090099332   17   17    5    5
 -2.235673973247807   17   17    6    6
 -2.77373991833407   17   17    7    7
 -2.882816063777419   17   17    8    8
 -2.917024776046353   17   17    9    9
 -3.277001224105254   17   17   10   10
 -4.183591060509491   17   17   11   11
 -4.276832165058023   17   17   12   12
 -4.28329694629504   17   17   13   13
 -4.295812169559293   17   17   14   14
 -4.316941846282628   17   17   15   15
 -4.339611522998267   17   17   16   16
 -5.470672382642328   17   17   17   17
 -1.333966944779466   18   18    1    1
 -2.189047336129988   18   18    2    2
 -2.198602499781567   18   18    3    3
 -2.215886973884167   18   18    4    4
 -2.22078622417441   18   18    5    5
 -2.237526971096792   18   18    6    6
 -2.776038882388678   18   18    7    7
 -2.885205433618067   18   18    8    8
 -2.919442499158099   18   18    9    9
 -3.279717307171054   18   18   10   10
 -4.187058554128383   18   18   11   11
 -4.280376939876334   18   18   12   12
 -4.2868470793301   18   18   13   13
 -4.299372675610305   18   18   14   14
 -4.320519865283196   18   18   15   15
 -4.343208331349472   18   18   16   16
 -5.475206650285483   18   18   17   17
 -5.479744676074186   18   18   18   18
 -1.33672007542086   19   19    1    1
 -2.193565239156108   19   19    2    2
 -2.203140123396668   19   19    3    3
 -2.220460270358673   19   19    4    4
 -2.225369632050962   19   19    5    5
 -2.242144929652048   19   19    6    6
 -2.781768258021798   19   19    7    7
 -2.891160114517094   19   19    8    8
 -2.925467840814186   19   19    9    9
 -3.286486208191295   19   19   10   10
 -4.195700086999793   19   19   11   11
 -4.289211069504518   19   19   12   12
 -4.295694562466969   19   19   13   13
 -4.308246009914668   19   19   14   14
 -4.329436844578987   19   19   15   15
 -4.352172136626502   19   19   16   16
 -5.486506749778849   19   19   17   17
 -5.491054141450191   19   19   18   18
 -5.50238694806099   19   19   19   19
 -1.338716067437129   20   20    1    1
 -2.196840673396252   20   20    2    2
 -2.206429854865418   20   20    3    3
 -2.223775864291595   20   20    4    4
 -2.228692556648637   20   20    5    5
 -2.245492903144176   20   20    6    6
 -2.785921997713614   20   20    7    7
 -2.895477198259938   20   20    8    8
 -2.929836152894993   20   20    9    9
 -3.291393593330299   20   20   10   10
 -4.201965111390689   20   20   11   11
 -4.295615724606395   20   20   12   12
 -4.302108898728296   20   20   13   13
 -4.314679088012344   20   20   14   14
 -4.335901564856342   20   20   15   15
 -4.358670805269152   20   20   16   16
 -5.494699208223313   20   20   17   17
 -5.499253390065341   20   20   18   18
 -5.510603118836533   20   20   19   19
 -5.51883155800811   20   20   20   20
 -1.34377412534014   21   21    1    1
 -2.205140975155533   21   21    2    2
 -2.214766387335821   21   21    3    3
 -2.23217793502078   21   21    4    4
 -2.237113204068757   21   21    5    5
 -2.253977027150132   21   21    6    6
 -2.796448019713696   21   21    7    7
 -2.906417151609181   21   21    8    8
 -2.940905924348507   21   21    9    9
 -3.303829433746059   21   21   10   10
 -4.217841355320838   21   21   11   11
 -4.311845807738015   21   21   12   12
 -4.318363514956577   21   21   13   13
 -4.330981198064593   21   21   14   14
 -4.352283859586532   21   21   15   15
 -4.375139128799038   21   21   16   16
 -5.515459776823961   21   21   17   17
 -5.520031165686969   21   21   18   18
 -5.531423777028039   21   21   19   19
 -5.539683305631343   21   21   20   20
 -5.560613837209907   21   21   21   21
 -0.1623677666528719    1    1  0  0
 -0.43724010178252    2    2  0  0
 -0.4410655274826451    3    3  0  0
 -0.4480277249475134    4    4  0  0
 -0.4500110630169136    5    5  0  0
 -0.4568211880605699    6    6  0  0
 -0.7031707070387461    7    7  0  0
 -0.7595618852941715    8    8  0  0
 -0.7776954045965389    9    9  0  0
 -0.9814823728852626   10   10  0  0
 -1.59966023711342   11   11  0  0
 -1.671759163106768   12   12  0  0
 -1.676816983991921   13   13  0  0
 -1.686630171337408   14   14  0  0
 -1.703262926447161   15   15  0  0
 -1.721198680283921   16   16  0  0
 -2.735336191321164   17   17  0  0
 -2.739872338037093   18   18  0  0
 -2.751193474030495   19   19  0  0
 -2.759415779004055   20   20  0  0
 -2.780306918604953   21   21  0  0
 -1517.049380447683  0  0  0  0
