 &FCI NORB=  48,NELEC=62,MS2=0,
  ORBSYM=1,1,1,1,1,1,1,1,1,1,1,1,1,1,1,1,1,1,1,1,1,1,1,1,1,1,1,1,1,1,1,1,1,1,1,1,1,1,1,1,1,1,1,1,1,1,1,1,
  ISYM=1,
 &END
 -0.4079253814518581    1    1    1    1
 -0.4116362489628612    2    2    1    1
 -0.4153808739655782    2    2    2    2
 -0.4144079627616568    3    3    1    1
 -0.4181778018431082    3    3    2    2
 -0.420993562570301    3    3    3    3
 -0.414444201740543    4    4    1    1
 -0.4182143704853483    4    4    2    2
 -0.4210303774440391    4    4    3    3
 -0.4210671955371496    4    4    4    4
 -0.4147716724435155    5    5    1    1
 -0.4185448201654763    5    5    2    2
 -0.4213630521758737    5    5    3    3
 -0.4213998993605887    5    5    4    4
 -0.4217328660680408    5    5    5    5
 -0.4154353101830425    6    6    1    1
 -0.4192144949692279    6    6    2    2
 -0.4220372361716583    6    6    3    3
 -0.4220741423121409    6    6    4    4
 -0.4224076417687843    6    6    5    5
 -0.4230834971156331    6    6    6    6
 -0.4186989649594716    7    7    1    1
 -0.4225078389756673    7    7    2    2
 -0.4253527555988721    7    7    3    3
 -0.4253899516735484    7    7    4    4
 -0.4257260710978931    7    7    5    5
 -0.4264072359561793    7    7    6    6
 -0.4297570860488907    7    7    7    7
 -0.4281138451184708    8    8    1    1
 -0.4320083656143675    8    8    2    2
 -0.4349172531362642    8    8    3    3
 -0.434955285603229    8    8    4    4
 -0.4352989630211779    8    8    5    5
 -0.4359954445772494    8    8    6    6
 -0.4394206195210184    8    8    7    7
 -0.4493014475583746    8    8    8    8
 -0.4287751861631687    9    9    1    1
 -0.4326757228304243    9    9    2    2
 -0.4355891039390962    9    9    3    3
 -0.4356271951577965    9    9    4    4
 -0.4359714034812166    9    9    5    5
 -0.4366689609469909    9    9    6    6
 -0.4400994270272213    9    9    7    7
 -0.4499955187548582    9    9    8    8
 -0.450690662137573    9    9    9    9
 -0.4301176473532909   10   10    1    1
 -0.4340303962923044   10   10    2    2
 -0.4369528989667679   10   10    3    3
 -0.4369911094460608   10   10    4    4
 -0.4373363954585133   10   10    5    5
 -0.4380361369215335   10   10    6    6
 -0.4414773435196982   10   10    7    7
 -0.4514044191277156   10   10    8    8
 -0.4521017389493732   10   10    9    9
 -0.4535172337310496   10   10   10   10
 -0.4302122647075446   11   11    1    1
 -0.4341258743737445   11   11    2    2
 -0.4370490199408504   11   11    3    3
 -0.4370872388256911   11   11    4    4
 -0.4374326007942202   11   11    5    5
 -0.4381324961864882   11   11    6    6
 -0.4415744597818738   11   11    7    7
 -0.4515037191496958   11   11    8    8
 -0.4522011923678881   11   11    9    9
 -0.4536169985303507   11   11   10   10
 -0.4537167852759296   11   11   11   11
 -0.432060642178527   12   12    1    1
 -0.435991066400077   12   12    2    2
 -0.4389267710615042   12   12    3    3
 -0.4389651541511608   12   12    4    4
 -0.4393119999436864   12   12    5    5
 -0.4400149023884753   12   12    6    6
 -0.4434716541442357   12   12    7    7
 -0.4534435738935126   12   12    8    8
 -0.4541440437575211   12   12    9    9
 -0.4555659328339977   12   12   10   10
 -0.4556661483064808   12   12   11   11
 -0.4576238866415132   12   12   12   12
 -0.4331319509681166   13   13    1    1
 -0.4370721208077682   13   13    2    2
 -0.440015104646932   13   13    3    3
 -0.4400535829087411   13   13    4    4
 -0.4404012887169911   13   13    5    5
 -0.441105934031863   13   13    6    6
 -0.4445712569190292   13   13    7    7
 -0.4545679023763053   13   13    8    8
 -0.4552701090787317   13   13    9    9
 -0.4566955237766529   13   13   10   10
 -0.4567959877367464   13   13   11   11
 -0.458758580349353   13   13   12   12
 -0.4598960875681309   13   13   13   13
 -0.4335506262182813   14   14    1    1
 -0.4374946047162173   14   14    2    2
 -0.4404404333108704   14   14    3    3
 -0.4404789487666474   14   14    4    4
 -0.4408269906752842   14   14    5    5
 -0.4415323171164338   14   14    6    6
 -0.4450009896639597   14   14    7    7
 -0.4550072981073726   14   14    8    8
 -0.455710183578858   14   14    9    9
 -0.4571369761152276   14   14   10   10
 -0.4572375371860826   14   14   11   11
 -0.4592020268855959   14   14   12   12
 -0.460340633644868   14   14   13   13
 -0.4607856094300102   14   14   14   14
 -0.4337079663037808   15   15    1    1
 -0.4376533761130252   15   15    2    2
 -0.440600273779881   15   15    3    3
 -0.4406388032133224   15   15    4    4
 -0.440986971430031   15   15    5    5
 -0.4416925538415698   15   15    6    6
 -0.445162485206872   15   15    7    7
 -0.4551724250449383   15   15    8    8
 -0.4558755656009593   15   15    9    9
 -0.4573028759353578   15   15   10   10
 -0.457403473500884   15   15   11   11
 -0.459368676134386   15   15   12   12
 -0.4605076961060352   15   15   13   13
 -0.4609528333775734   15   15   14   14
 -0.4611201180124671   15   15   15   15
 -0.4343206875531117   16   16    1    1
 -0.4382716712429746   16   16    2    2
 -0.441222732141683   16   16    3    3
 -0.4412613160076099   16   16    4    4
 -0.4416099760992235   16   16    5    5
 -0.4423165553228346   16   16    6    6
 -0.4457913888362328   16   16    7    7
 -0.4558154702241896   16   16    8    8
 -0.4565196041425498   16   16    9    9
 -0.4579489309106761   16   16   10   10
 -0.458049670595487   16   16   11   11
 -0.4600176495704594   16   16   12   12
 -0.4611582786934136   16   16   13   13
 -0.4616040448329605   16   16   14   14
 -0.4617715657993456   16   16   15   15
 -0.4624239339195657   16   16   16   16
 -0.437625383243417   17   17    1    1
 -0.4416064295094972   17   17    2    2
 -0.4445799446879886   17   17    3    3
 -0.4446188221340719   17   17    4    4
 -0.4449701351398459   17   17    5    5
 -0.4456820906427412   17   17    6    6
 -0.4491833637609414   17   17    7    7
 -0.4592837172204604   17   17    8    8
 -0.459993208812061   17   17    9    9
 -0.461433411161632   17   17   10   10
 -0.4615349173630097   17   17   11   11
 -0.4635178704615353   17   17   12   12
 -0.4646671784990679   17   17   13   13
 -0.4651163364214206   17   17   14   14
 -0.4652851320353911   17   17   15   15
 -0.4659424639489029   17   17   16   16
 -0.4694877660647591   17   17   17   17
 -0.4410850401444338   18   18    1    1
 -0.445097558657589   18   18    2    2
 -0.4480945810244232   18   18    3    3
 -0.4481337658169947   18   18    4    4
 -0.4484878561353089   18   18    5    5
 -0.4492054400177798   18   18    6    6
 -0.452734392526092   18   18    7    7
 -0.4629145945476162   18   18    8    8
 -0.4636296950402884   18   18    9    9
 -0.4650812829405802   18   18   10   10
 -0.465183591601421   18   18   11   11
 -0.467182220978413   18   18   12   12
 -0.4683406148954117   18   18   13   13
 -0.468793323645402   18   18   14   14
 -0.4689634536767374   18   18   15   15
 -0.4696259821418615   18   18   16   16
 -0.4731993117200198   18   18   17   17
 -0.4769401990794671   18   18   18   18
 -0.4432316094117276   19   19    1    1
 -0.4472636551093049   19   19    2    2
 -0.4502752626819851   19   19    3    3
 -0.4503146381699187   19   19    4    4
 -0.4506704516919828   19   19    5    5
 -0.4513915277434656   19   19    6    6
 -0.4549376541305328   19   19    7    7
 -0.4651673987726526   19   19    8    8
 -0.4658859793487574   19   19    9    9
 -0.4673446314967383   19   19   10   10
 -0.4674474380493849   19   19   11   11
 -0.4694557938872788   19   19   12   12
 -0.4706198252042238   19   19   13   13
 -0.4710747370910275   19   19   14   14
 -0.4712456950713148   19   19   15   15
 -0.4719114477746525   19   19   16   16
 -0.4755021671954859   19   19   17   17
 -0.4792612598285365   19   19   18   18
 -0.48159361617192   19   19   19   19
 -0.4509978054186105   20   20    1    1
 -0.455100499636129   20   20    2    2
 -0.4581648758611539   20   20    3    3
 -0.4582049412767701   20   20    4    4
 -0.4585669892764653   20   20    5    5
 -0.4593006998464093   20   20    6    6
 -0.4629089605939379   20   20    7    7
 -0.4733179483232024   20   20    8    8
 -0.4740491196926584   20   20    9    9
 -0.4755333299873204   20   20   10   10
 -0.4756379378912733   20   20   11   11
 -0.4776814836496455   20   20   12   12
 -0.4788659108390274   20   20   13   13
 -0.4793287935808056   20   20   14   14
 -0.4795027470450694   20   20   15   15
 -0.4801801649046742   20   20   16   16
 -0.4838338000342154   20   20   17   17
 -0.4876587585702757   20   20   18   18
 -0.490031981891862   20   20   19   19
 -0.4986182025949939   20   20   20   20
 -0.4517361517178417   21   21    1    1
 -0.4558455626179162   21   21    2    2
 -0.4589149556541495   21   21    3    3
 -0.4589550866624382   21   21    4    4
 -0.4593177273851966   21   21    5    5
 -0.4600526391416596   21   21    6    6
 -0.463666807115205   21   21    7    7
 -0.4740928358089182   21   21    8    8
 -0.4748252042078681   21   21    9    9
 -0.4763118443617559   21   21   10   10
 -0.4764166235234352   21   21   11   11
 -0.4784635148511869   21   21   12   12
 -0.4796498811130465   21   21   13   13
 -0.4801135216584221   21   21   14   14
 -0.4802877599087648   21   21   15   15
 -0.4809662867958718   21   21   16   16
 -0.4846259034356205   21   21   17   17
 -0.4884571239621957   21   21   18   18
 -0.4908342325813061   21   21   19   19
 -0.4994345101250797   21   21   20   20
 -0.5002521540644266   21   21   21   21
 -0.4517442321011816   22   22    1    1
 -0.4558537165079153   22   22    2    2
 -0.4589231644475967   22   22    3    3
 -0.4589632961737247   22   22    4    4
 -0.4593259433831811   22   22    5    5
 -0.4600608682853017   22   22    6    6
 -0.4636751009069001   22   22    7    7
 -0.4741013160951151   22   22    8    8
 -0.4748336975942283   22   22    9    9
 -0.4763203643402371   22   22   10   10
 -0.4764251453761427   22   22   11   11
 -0.4784720733174497   22   22   12   12
 -0.4796584608003122   22   22   13   13
 -0.4801221096390098   22   22   14   14
 -0.4802963510060209   22   22   15   15
 -0.4809748900302069   22   22   16   16
 -0.4846345721309669   22   22   17   17
 -0.4884658611881001   22   22   18   18
 -0.4908430123274931   22   22   19   19
 -0.4994434437078352   22   22   20   20
 -0.5002611022727027   22   22   21   21
 -0.500270050641039   22   22   22   22
 -0.4555858629049962   23   23    1    1
 -0.459730294347603   23   23    2    2
 -0.4628258448579822   23   23    3    3
 -0.4628663178641185   23   23    4    4
 -0.4632320490237215   23   23    5    5
 -0.4639732237237185   23   23    6    6
 -0.4676181917623619   23   23    7    7
 -0.4781330714350085   23   23    8    8
 -0.4788716811029111   23   23    9    9
 -0.4803709904558656   23   23   10   10
 -0.4804766625492028   23   23   11   11
 -0.482540997555999   23   23   12   12
 -0.4837374740723799   23   23   13   13
 -0.4842050657785992   23   23   14   14
 -0.4843807888933678   23   23   15   15
 -0.4850650982101921   23   23   16   16
 -0.4887559022301519   23   23   17   17
 -0.4926197725512267   23   23   18   18
 -0.4950171389726167   23   23   19   19
 -0.5036907083805615   23   23   20   20
 -0.5045153203099806   23   23   21   21
 -0.5045243447751987   23   23   22   22
 -0.5088148174064655   23   23   23   23
 -0.4562422676701537   24   24    1    1
 -0.4603926703791437   24   24    2    2
 -0.4634926809359626   24   24    3    3
 -0.4635332122553089   24   24    4    4
 -0.4638994703576804   24   24    5    5
 -0.4646417129367415   24   24    6    6
 -0.468291932618564   24   24    7    7
 -0.4788219620526149   24   24    8    8
 -0.4795616359039022   24   24    9    9
 -0.4810631054507606   24   24   10   10
 -0.4811689297956738   24   24   11   11
 -0.4832362390811858   24   24   12   12
 -0.4844344394721438   24   24   13   13
 -0.4849027048810592   24   24   14   14
 -0.4850786811764008   24   24   15   15
 -0.4857639764410628   24   24   16   16
 -0.4894600981443469   24   24   17   17
 -0.4933295355014017   24   24   18   18
 -0.4957303560307239   24   24   19   19
 -0.5044164222537673   24   24   20   20
 -0.5052422222779976   24   24   21   21
 -0.5052512597455991   24   24   22   22
 -0.509547914058321   24   24   23   23
 -0.5102820669504482   24   24   24   24
 -0.4582581484693261   25   25    1    1
 -0.4624268894992537   25   25    2    2
 -0.4655405972783633   25   25    3    3
 -0.4655813076830646   25   25    4    4
 -0.4659491840762619   25   25    5    5
 -0.4666947062124124   25   25    6    6
 -0.470361054184599   25   25    7    7
 -0.4809376099614617   25   25    8    8
 -0.4816805520200592   25   25    9    9
 -0.4831886557256629   25   25   10   10
 -0.4832949476494923   25   25   11   11
 -0.4853713912248102   25   25   12   12
 -0.4865748857968051   25   25   13   13
 -0.4870452202100929   25   25   14   14
 -0.4872219740467981   25   25   15   15
 -0.4879102972500438   25   25   16   16
 -0.4916227500591923   25   25   17   17
 -0.4955092843075795   25   25   18   18
 -0.4979207127273806   25   25   19   19
 -0.5066451578454984   25   25   20   20
 -0.5074746066206902   25   25   21   21
 -0.5074836840198339   25   25   22   22
 -0.5117993228579789   25   25   23   23
 -0.5125367195633689   25   25   24   24
 -0.5148013342320509   25   25   25   25
 -0.4586956915488531   26   26    1    1
 -0.4628684128763358   26   26    2    2
 -0.4659850936113983   26   26    3    3
 -0.4660258428862341   26   26    4    4
 -0.4663940705263661   26   26    5    5
 -0.4671403044841228   26   26    6    6
 -0.4708101530709471   26   26    7    7
 -0.4813968073017071   26   26    8    8
 -0.482140458718463   26   26    9    9
 -0.483650002355559   26   26   10   10
 -0.4837563957664995   26   26   11   11
 -0.4858348219219843   26   26   12   12
 -0.4870394655858676   26   26   13   13
 -0.4875102490726052   26   26   14   14
 -0.4876871716731791   26   26   15   15
 -0.4883761520847147   26   26   16   16
 -0.4920921495292179   26   26   17   17
 -0.4959823946252341   26   26   18   18
 -0.4983961254674152   26   26   19   19
 -0.5071289006514509   26   26   20   20
 -0.5079591413810741   26   26   21   21
 -0.5079682274472828   26   26   22   22
 -0.5122879868404332   26   26   23   23
 -0.5130260876093   26   26   24   24
 -0.5152928645231692   26   26   25   25
 -0.5157848641254783   26   26   26   26
 -0.4593148783316362   27   27    1    1
 -0.4634932323562249   27   27    2    2
 -0.466614120254234   27   27    3    3
 -0.4666549245359355   27   27    4    4
 -0.467023649241316   27   27    5    5
 -0.4677708905296669   27   27    6    6
 -0.4714456929928445   27   27    7    7
 -0.4820466379974103   27   27    8    8
 -0.482791293258625   27   27    9    9
 -0.4843028746071827   27   27   10   10
 -0.4844094116370739   27   27   11   11
 -0.4864906434304317   27   27   12   12
 -0.4876969132256443   27   27   13   13
 -0.4881683322163073   27   27   14   14
 -0.4883454936421806   27   27   15   15
 -0.4890354040985634   27   27   16   16
 -0.492756417715106   27   27   17   17
 -0.4966519141975853   27   27   18   18
 -0.4990689033006617   27   27   19   19
 -0.5078134667335749   27   27   20   20
 -0.5086448281933375   27   27   21   21
 -0.5086539265246977   27   27   22   22
 -0.5129795170995448   27   27   23   23
 -0.51371861422013   27   27   24   24
 -0.5159884510238794   27   27   25   25
 -0.516481114769446   27   27   26   26
 -0.5171783052722443   27   27   27   27
 -0.459458045174072   28   28    1    1
 -0.4636377015770082   28   28    2    2
 -0.4667595622448689   28   28    3    3
 -0.4668003792451224   28   28    4    4
 -0.4671692188807049   28   28    5    5
 -0.4679166930815541   28   28    6    6
 -0.4715926409678174   28   28    7    7
 -0.4821968902498946   28   28    8    8
 -0.4829417776175519   28   28    9    9
 -0.4844538301207335   28   28   10   10
 -0.4845604003578445   28   28   11   11
 -0.4866422808638792   28   28   12   12
 -0.4878489266491716   28   28   13   13
 -0.4883204925794865   28   28   14   14
 -0.4884977092259571   28   28   15   15
 -0.4891878347250182   28   28   16   16
 -0.4929100081685015   28   28   17   17
 -0.4968067188636209   28   28   18   18
 -0.4992244613337544   28   28   19   19
 -0.5079717504165303   28   28   20   20
 -0.5088033710087547   28   28   21   21
 -0.5088124721760329   28   28   22   22
 -0.5131394110223459   28   28   23   23
 -0.5138787385169207   28   28   24   24
 -0.5161492828208695   28   28   25   25
 -0.516642100128004   28   28   26   26
 -0.5173395079426456   28   28   27   27
 -0.5175007608593559   28   28   28   28
 -0.4615928460060911   29   29    1    1
 -0.4657919225368501   29   29    2    2
 -0.4689282884480538   29   29    3    3
 -0.4689692950981939   29   29    4    4
 -0.4693398484901666   29   29    5    5
 -0.4700907957144237   29   29    6    6
 -0.4737838233246977   29   29    7    7
 -0.4844373436129704   29   29    8    8
 -0.4851856919847148   29   29    9    9
 -0.4867047700062779   29   29   10   10
 -0.4868118354055331   29   29   11   11
 -0.4889033890477402   29   29   12   12
 -0.4901156413262769   29   29   13   13
 -0.4905893983148419   29   29   14   14
 -0.4907674383710847   29   29   15   15
 -0.49146077043167   29   29   16   16
 -0.4952002383790748   29   29   17   17
 -0.4991150545384939   29   29   18   18
 -0.5015440306755335   29   29   19   19
 -0.5103319626857933   29   29   20   20
 -0.5111674472746346   29   29   21   21
 -0.5111765907290806   29   29   22   22
 -0.5155236340283382   29   29   23   23
 -0.5162663966939087   29   29   24   24
 -0.518547490731223   29   29   25   25
 -0.519042597837847   29   29   26   26
 -0.5197432460501672   29   29   27   27
 -0.5199052482036454   29   29   28   28
 -0.5223209076269464   29   29   29   29
 -0.4623300043125986   30   30    1    1
 -0.4665357867188302   30   30    2    2
 -0.469677161369237   30   30    3    3
 -0.4697182335065115   30   30    4    4
 -0.4700893786678612   30   30    5    5
 -0.4708415251459389   30   30    6    6
 -0.4745404504775546   30   30    7    7
 -0.4852109843115136   30   30    8    8
 -0.4859605277867421   30   30    9    9
 -0.4874820317579087   30   30   10   10
 -0.4875892681393381   30   30   11   11
 -0.4896841619679329   30   30   12   12
 -0.4908983501989967   30   30   13   13
 -0.4913728637718597   30   30   14   14
 -0.4915511881559631   30   30   15   15
 -0.4922456274596351   30   30   16   16
 -0.4959910672930498   30   30   17   17
 -0.4999121353674961   30   30   18   18
 -0.5023449905506501   30   30   19   19
 -0.5111469567842182   30   30   20   20
 -0.5119837756320497   30   30   21   21
 -0.5119929336884842   30   30   22   22
 -0.5163469191643907   30   30   23   23
 -0.5170908680131384   30   30   24   24
 -0.5193756049306057   30   30   25   25
 -0.5198715027174134   30   30   26   26
 -0.520573269856628   30   30   27   27
 -0.5207355307256261   30   30   28   28
 -0.5231550479284074   30   30   29   29
 -0.5239905203420476   30   30   30   30
 -0.4635276497263067   31   31    1    1
 -0.4677443270257161   31   31    2    2
 -0.4708938392681194   31   31    3    3
 -0.4709350178009477   31   31    4    4
 -0.4713071243974111   31   31    5    5
 -0.4720612192776507   31   31    6    6
 -0.4757697265116256   31   31    7    7
 -0.4864679018912098   31   31    8    8
 -0.4872193870256363   31   31    9    9
 -0.4887448323854995   31   31   10   10
 -0.4888523465580288   31   31   11   11
 -0.4909526671163676   31   31   12   12
 -0.4921700006483048   31   31   13   13
 -0.4926457434275766   31   31   14   14
 -0.4928245297531044   31   31   15   15
 -0.4935207679710572   31   31   16   16
 -0.4972759102005893   31   31   17   17
 -0.5012071356283382   31   31   18   18
 -0.5036462930151674   31   31   19   19
 -0.5124710603526934   31   31   20   20
 -0.5133100469427132   31   31   21   21
 -0.5133192287226874   31   31   22   22
 -0.5176844930052644   31   31   23   23
 -0.518430369020578   31   31   24   24
 -0.5207210244479089   31   31   25   25
 -0.5212182068359853   31   31   26   26
 -0.521921791871914   31   31   27   27
 -0.5220844730705116   31   31   28   28
 -0.5245102579255204   31   31   29   29
 -0.5253478945934705   31   31   30   30
 -0.5267087850628153   31   31   31   31
 -0.4671029523377565   32   32    1    1
 -0.4713521539048534   32   32    2    2
 -0.4745259591087482   32   32    3    3
 -0.4745674552617142   32   32    4    4
 -0.4749424320077509   32   32    5    5
 -0.4757023434070184   32   32    6    6
 -0.4794394552681521   32   32    7    7
 -0.490220148302066   32   32    8    8
 -0.4909774298259101   32   32    9    9
 -0.4925146413205053   32   32   10   10
 -0.4926229847762543   32   32   11   11
 -0.4947395056229288   32   32   12   12
 -0.4959662287473927   32   32   13   13
 -0.4964456410475702   32   32   14   14
 -0.4966258063959395   32   32   15   15
 -0.4973274148702734   32   32   16   16
 -0.5011115214341393   32   32   17   17
 -0.5050730693691783   32   32   18   18
 -0.5075310405760245   32   32   19   19
 -0.5164238755115157   32   32   20   20
 -0.5172693334111715   32   32   21   21
 -0.5172785860124701   32   32   22   22
 -0.5216775206506307   32   32   23   23
 -0.5224291497908484   32   32   24   24
 -0.5247374736061085   32   32   25   25
 -0.5252384908840592   32   32   26   26
 -0.5259475028441808   32   32   27   27
 -0.5261114388428201   32   32   28   28
 -0.5285559343722234   32   32   29   29
 -0.5294000319375293   32   32   30   30
 -0.5307714192893184   32   32   31   31
 -0.5348653896114524   32   32   32   32
 -0.4692299718983035   33   33    1    1
 -0.4734985228075629   33   33    2    2
 -0.4766867803837159   33   33    3    3
 -0.4767284654953013   33   33    4    4
 -0.4771051497511485   33   33    5    5
 -0.4778685215147799   33   33    6    6
 -0.4816226508449508   33   33    7    7
 -0.4924524352940325   33   33    8    8
 -0.4932131652067297   33   33    9    9
 -0.494757376611947   33   33   10   10
 -0.4948662134249923   33   33   11   11
 -0.4969923721496093   33   33   12   12
 -0.4982246813318534   33   33   13   13
 -0.4987062767039532   33   33   14   14
 -0.4988872624607959   33   33   15   15
 -0.4995920658088538   33   33   16   16
 -0.5033934038388027   33   33   17   17
 -0.5073729912443818   33   33   18   18
 -0.5098421551718265   33   33   19   19
 -0.5187754848928073   33   33   20   20
 -0.5196247927049529   33   33   21   21
 -0.5196340874392841   33   33   22   22
 -0.5240530532503888   33   33   23   23
 -0.5248081050405288   33   33   24   24
 -0.5271269401357594   33   33   25   25
 -0.5276302388669637   33   33   26   26
 -0.5283424794136321   33   33   27   27
 -0.5285071619180984   33   33   28   28
 -0.5309627888046912   33   33   29   29
 -0.5318107300880113   33   33   30   30
 -0.5331883622466631   33   33   31   31
 -0.5373009750434633   33   33   32   32
 -0.5397476512592713   33   33   33   33
 -0.4696979304490322   34   34    1    1
 -0.473970738343175   34   34    2    2
 -0.477162175538031   34   34    3    3
 -0.4772039022217786   34   34    4    4
 -0.4775809621412214   34   34    5    5
 -0.4783450952081914   34   34    6    6
 -0.4821029684955385   34   34    7    7
 -0.4929435533847861   34   34    8    8
 -0.4937050419661292   34   34    9    9
 -0.4952507933985709   34   34   10   10
 -0.495359738753526   34   34   11   11
 -0.4974880178758477   34   34   12   12
 -0.4987215560282205   34   34   13   13
 -0.4992036316907661   34   34   14   14
 -0.4993847979429684   34   34   15   15
 -0.5000903041846456   34   34   16   16
 -0.5038954332525544   34   34   17   17
 -0.507878989462486   34   34   18   18
 -0.5103506158634346   34   34   19   19
 -0.5192928547084692   34   34   20   20
 -0.5201430095271504   34   34   21   21
 -0.5201523135310309   34   34   22   22
 -0.5245756863343579   34   34   23   23
 -0.5253314911304068   34   34   24   24
 -0.5276526387776388   34   34   25   25
 -0.5281564394438407   34   34   26   26
 -0.5288693903011753   34   34   27   27
 -0.529034237041924   34   34   28   28
 -0.5314923129016595   34   34   29   29
 -0.5323410998286892   34   34   30   30
 -0.5337201058866803   34   34   31   31
 -0.53783682015278   34   34   32   32
 -0.5402859364153125   34   34   33   33
 -0.5408247583979774   34   34   34   34
 -0.4705459982643311   35   35    1    1
 -0.4748265209696771   35   35    2    2
 -0.4780237204960106   35   35    3    3
 -0.478065522519791   35   35    4    4
 -0.478443263243558   35   35    5    5
 -0.4792087759986609   35   35    6    6
 -0.4829734343518607   35   35    7    7
 -0.4938335925680225   35   35    8    8
 -0.494596456062721   35   35    9    9
 -0.4961449984421848   35   35   10   10
 -0.4962541405045197   35   35   11   11
 -0.498386262362584   35   35   12   12
 -0.4996220277421557   35   35   13   13
 -0.5001049738212552   35   35   14   14
 -0.5002864671800035   35   35   15   15
 -0.5009932472555605   35   35   16   16
 -0.5048052467124711   35   35   17   17
 -0.5087959954723228   35   35   18   18
 -0.5112720845431409   35   35   19   19
 -0.5202304691373254   35   35   20   20
 -0.5210821589615772   35   35   21   21
 -0.5210914797643954   35   35   22   22
 -0.5255228392329095   35   35   23   23
 -0.5262800086798981   35   35   24   24
 -0.5286053472985748   35   35   25   25
 -0.5291100576071291   35   35   26   26
 -0.529824295740044   35   35   27   27
 -0.529989440121481   35   35   28   28
 -0.5324519541847704   35   35   29   29
 -0.5333022736475601   35   35   30   30
 -0.5346837695837882   35   35   31   31
 -0.5388079168246732   35   35   32   32
 -0.5412614551136691   35   35   33   33
 -0.5418012499717759   35   35   34   34
 -0.542779504659742   35   35   35   35
 -0.4708317918352239   36   36    1    1
 -0.4751149143838876   36   36    2    2
 -0.4783140557800337   36   36    3    3
 -0.4783558831929359   36   36    4    4
 -0.4787338533435193   36   36    5    5
 -0.4794998310449284   36   36    6    6
 -0.4832667759230544   36   36    7    7
 -0.4941335302284582   36   36    8    8
 -0.4948968570603927   36   36    9    9
 -0.4964463399716175   36   36   10   10
 -0.4965555483231139   36   36   11   11
 -0.4986889651591861   36   36   12   12
 -0.4999254811004498   36   36   13   13
 -0.5004087205045058   36   36   14   14
 -0.5005903240961224   36   36   15   15
 -0.5012975334457618   36   36   16   16
 -0.5051118481809684   36   36   17   17
 -0.5091050207853386   36   36   18   18
 -0.5115826137481037   36   36   19   19
 -0.520546439359175   36   36   20   20
 -0.5213986464707421   36   36   21   21
 -0.5214079729346975   36   36   22   22
 -0.5258420238596284   36   36   23   23
 -0.526599653185483   36   36   24   24
 -0.5289264041354297   36   36   25   25
 -0.5294314209877904   36   36   26   26
 -0.5301460929245571   36   36   27   27
 -0.5303113376090518   36   36   28   28
 -0.532775347319292   36   36   29   29
 -0.5336261832370863   36   36   30   30
 -0.5350085182467699   36   36   31   31
 -0.5391351703538556   36   36   32   32
 -0.5415901988382235   36   36   33   33
 -0.5421303215492939   36   36   34   34
 -0.5431091703957515   36   36   35   35
 -0.5434390363594714   36   36   36   36
 -0.4773289240642189   37   37    1    1
 -0.4816711505519841   37   37    2    2
 -0.484914437745059   37   37    3    3
 -0.4849568423454773   37   37    4    4
 -0.4853400282059798   37   37    5    5
 -0.486116575835964   37   37    6    6
 -0.4899355017812076   37   37    7    7
 -0.5009522092988766   37   37    8    8
 -0.5017260694793382   37   37    9    9
 -0.5032969341144298   37   37   10   10
 -0.5034076494608074   37   37   11   11
 -0.5055705058791761   37   37   12   12
 -0.5068240848304424   37   37   13   13
 -0.507313992582645   37   37   14   14
 -0.5074981021701787   37   37   15   15
 -0.5082150704883879   37   37   16   16
 -0.512082019959879   37   37   17   17
 -0.5161302954075018   37   37   18   18
 -0.5186420773298227   37   37   19   19
 -0.5277295971375959   37   37   20   20
 -0.5285935640801396   37   37   21   21
 -0.528603019242434   37   37   22   22
 -0.5330982568069864   37   37   23   23
 -0.5338663408599771   37   37   24   24
 -0.5362251992607118   37   37   25   25
 -0.5367371849739788   37   37   26   26
 -0.5374617188575257   37   37   27   27
 -0.5376292437970583   37   37   28   28
 -0.5401272550279661   37   37   29   29
 -0.5409898318552718   37   37   30   30
 -0.5423912420707899   37   37   31   31
 -0.5465748389400343   37   37   32   32
 -0.549063745010762   37   37   33   33
 -0.5496113210177538   37   37   34   34
 -0.5506036772579302   37   37   35   35
 -0.5509380951291919   37   37   36   36
 -0.5585406353911666   37   37   37   37
 -0.4775324526581607   38   38    1    1
 -0.4818765306307345   38   38    2    2
 -0.4851212007311693   38   38    3    3
 -0.4851636234125131   38   38    4    4
 -0.4855469726598868   38   38    5    5
 -0.4863238514025257   38   38    6    6
 -0.4901444057021155   38   38    7    7
 -0.5011658106409501   38   38    8    8
 -0.501940000788163   38   38    9    9
 -0.5035115352252599   38   38   10   10
 -0.503622297779627   38   38   11   11
 -0.5057860764197666   38   38   12   12
 -0.5070401898853867   38   38   13   13
 -0.5075303065296779   38   38   14   14
 -0.5077144946198199   38   38   15   15
 -0.5084317686466219   38   38   16   16
 -0.512300366949242   38   38   17   17
 -0.5163503685436961   38   38   18   18
 -0.5188632214663632   38   38   19   19
 -0.5279546161076856   38   38   20   20
 -0.5288189514376621   38   38   21   21
 -0.5288284106315495   38   38   22   22
 -0.5333255649234042   38   38   23   23
 -0.5340939764802594   38   38   24   24
 -0.5364538406761794   38   38   25   25
 -0.5369660446953716   38   38   26   26
 -0.5376908875133977   38   38   27   27