 &FCI NORB=  39,NELEC=50,MS2=0,
  ORBSYM=1,1,1,1,1,1,1,1,1,1,1,1,1,1,1,1,1,1,1,1,1,1,1,1,1,1,1,1,1,1,1,1,1,1,1,1,1,1,1,
  ISYM=1,
 &END
 -0.4692403915248919    1    1    1    1
 -0.4741029830232808    2    2    1    1
 -0.4790159640373792    2    2    2    2
 -0.4774207666214395    3    3    1    1
 -0.4823681287898657    3    3    2    2
 -0.4857437520685212    3    3    3    3
 -0.4777877951239538    4    4    1    1
 -0.4827389606940229    4    4    2    2
 -0.4861171790628875    4    4    3    3
 -0.4864908931380849    4    4    4    4
 -0.477975663683271    5    5    1    1
 -0.4829287760764947    5    5    2    2
 -0.486308322777779    5    5    3    3
 -0.4866821837992267    5    5    4    4
 -0.4868735496768167    5    5    5    5
 -0.4784917761594026    6    6    1    1
 -0.4834502368648859    6    6    2    2
 -0.4868334327607814    6    6    3    3
 -0.4872076974729443    6    6    4    4
 -0.4873992699851487    6    6    5    5
 -0.48792555796006    6    6    6    6
 -0.4825279120670156    7    7    1    1
 -0.4875281979872612    7    7    2    2
 -0.4909399315490442    7    7    3    3
 -0.4913173532292449    7    7    4    4
 -0.4915105416787212    7    7    5    5
 -0.4920412689562478    7    7    6    6
 -0.4961916964716419    7    7    7    7
 -0.4960584363091703    8    8    1    1
 -0.5011989348226559    8    8    2    2
 -0.504706336515776    8    8    3    3
 -0.5050943414452889    8    8    4    4
 -0.5052929470756858    8    8    5    5
 -0.505838556431772    8    8    6    6
 -0.5101053657329819    8    8    7    7
 -0.5244091870135729    8    8    8    8
 -0.4961066408523168    9    9    1    1
 -0.5012476388944148    9    9    2    2
 -0.5047553814197512    9    9    3    3
 -0.5051434240536936    9    9    4    4
 -0.5053420489836186    9    9    5    5
 -0.5058877113593649    9    9    6    6
 -0.5101549352883243    9    9    7    7
 -0.5244601465446109    9    9    8    8
 -0.5245111110276481    9    9    9    9
 -0.4974036223793139   10   10    1    1
 -0.5025580606355552   10   10    2    2
 -0.5060749735224273   10   10    3    3
 -0.5064640306239991   10   10    4    4
 -0.5066631748230563   10   10    5    5
 -0.5072102637348799   10   10    6    6
 -0.511488643552819   10   10    7    7
 -0.5258312532093916   10   10    8    8
 -0.5258823509298975   10   10    9    9
 -0.5272571756920861   10   10   10   10
 -0.4978609376755657   11   11    1    1
 -0.5030201149472707   11   11    2    2
 -0.5065402613008615   11   11    3    3
 -0.5069296761034143   11   11    4    4
 -0.5071290033966114   11   11    5    5
 -0.5076765953046267   11   11    6    6
 -0.511958908685664   11   11    7    7
 -0.5263147050069271   11   11    8    8
 -0.5263658497069242   11   11    9    9
 -0.5277419384896489   11   11   10   10
 -0.5282271469804726   11   11   11   11
 -0.4985383169001283   12   12    1    1
 -0.5037045136409968   12   12    2    2
 -0.5072294494324141   12   12    3    3
 -0.5076193940646383   12   12    4    4
 -0.5078189925583998   12   12    5    5
 -0.5083673295085623   12   12    6    6
 -0.5126554693160129   12   12    7    7
 -0.5270307978348119   12   12    8    8
 -0.5270820121212229   12   12    9    9
 -0.5284599731816902   12   12   10   10
 -0.5289458418370827   12   12   11   11
 -0.5296655145349489   12   12   12   12
 -0.4986062731107714   13   13    1    1
 -0.5037731740606084   13   13    2    2
 -0.5072985903392241   13   13    3    3
 -0.5076885881251553   13   13    4    4
 -0.5078882138263686   13   13    5    5
 -0.5084366255208388   13   13    6    6
 -0.5127253498485199   13   13    7    7
 -0.527102637881402   13   13    8    8
 -0.5271538591488788   13   13    9    9
 -0.5285320080404694   13   13   10   10
 -0.5290179429250595   13   13   11   11
 -0.5297377137221647   13   13   12   12
 -0.5298099227509172   13   13   13   13
 -0.500582187695618   14   14    1    1
 -0.5057695644306504   14   14    2    2
 -0.5093089514950709   14   14    3    3
 -0.5097004947936737   14   14    4    4
 -0.509900911586688   14   14    5    5
 -0.5104514965684271   14   14    6    6
 -0.5147572165766814   14   14    7    7
 -0.5291914800120938   14   14    8    8
 -0.5292429042630767   14   14    9    9
 -0.5306265145871479   14   14   10   10
 -0.5311143751711878   14   14   11   11
 -0.5318369983303518   14   14   12   12
 -0.5319094935144955   14   14   13   13
 -0.5340173846156172   14   14   14   14
 -0.5060182426456283   15   15    1    1
 -0.5112619515188612   15   15    2    2
 -0.5148397744346653   15   15    3    3
 -0.5152355696841742   15   15    4    4
 -0.515438162896419   15   15    5    5
 -0.5159947269367202   15   15    6    6
 -0.5203472047624508   15   15    7    7
 -0.5349382165822975   15   15    8    8
 -0.5349901992731551   15   15    9    9
 -0.5363888348656756   15   15   10   10
 -0.5368819933548505   15   15   11   11
 -0.5376124638152129   15   15   12   12
 -0.5376857462583008   15   15   13   13
 -0.5398165279299142   15   15   14   14
 -0.5456786468404158   15   15   15   15
 -0.508600205252499   16   16    1    1
 -0.5138706701971361   16   16    2    2
 -0.5174667489863537   16   16    3    3
 -0.5178645637846615   16   16    4    4
 -0.518068190730583   16   16    5    5
 -0.5186275946438754   16   16    6    6
 -0.5230022810266227   16   16    7    7
 -0.5376677436147229   16   16    8    8
 -0.5377199915477252   16   16    9    9
 -0.5391257636908603   16   16   10   10
 -0.539621438525635   16   16   11   11
 -0.5403556362180518   16   16   12   12
 -0.5404292925854607   16   16   13   13
 -0.5425709465896027   16   16   14   14
 -0.5484629770142521   16   16   15   15
 -0.5512615142576921   16   16   16   16
 -0.5217574015663062   17   17    1    1
 -0.5271642104235597   17   17    2    2
 -0.5308533177135545   17   17    3    3
 -0.5312614237530845   17   17    4    4
 -0.5314703184115915   17   17    5    5
 -0.5320441937840574   17   17    6    6
 -0.5365320508005456   17   17    7    7
 -0.551576900514942   17   17    8    8
 -0.5516305000720775   17   17    9    9
 -0.5530726387362416   17   17   10   10
 -0.5535811363953911   17   17   11   11
 -0.5543343273620388   17   17   12   12
 -0.55440988917753   17   17   13   13
 -0.5566069465454098   17   17   14   14
 -0.5626514004260142   17   17   15   15
 -0.5655223342267564   17   17   16   16
 -0.5801520734490792   17   17   17   17
 -0.5219958498081305   18   18    1    1
 -0.5274051296299779   18   18    2    2
 -0.5310959228781298   18   18    3    3
 -0.5315042154261161   18   18    4    4
 -0.5317132055515278   18   18    5    5
 -0.5322873431906586   18   18    6    6
 -0.5367772512017507   18   18    7    7
 -0.5518289765597932   18   18    8    8
 -0.5518826006124511   18   18    9    9
 -0.5533253983481069   18   18   10   10
 -0.5538341283956661   18   18   11   11
 -0.5545876635779612   18   18   12   12
 -0.554663259925942   18   18   13   13
 -0.5568613213705537   18   18   14   14
 -0.5629085376257719   18   18   15   15
 -0.5657807834713745   18   18   16   16
 -0.5804172086277836   18   18   17   17
 -0.5806824649758611   18   18   18   18
 -0.5220145096724791   19   19    1    1
 -0.5274239828606678   19   19    2    2
 -0.5311149080441625   19   19    3    3
 -0.5315232151874442   19   19    4    4
 -0.5317322127836573   19   19    5    5
 -0.5323063709465728   19   19    6    6
 -0.5367964394590835   19   19    7    7
 -0.5518487028734219   19   19    8    8
 -0.551902328842987   19   19    9    9
 -0.5533451781545509   19   19   10   10
 -0.5538539263877599   19   19   11   11
 -0.5546074885067908   19   19   12   12
 -0.5546830875571256   19   19   13   13
 -0.5568812275761712   19   19   14   14
 -0.5629286600021406   19   19   15   15
 -0.5658010085223485   19   19   16   16
 -0.5804379568892546   19   19   17   17
 -0.5807032227194906   19   19   18   18
 -0.5807239812051505   19   19   19   19
 -0.5267969489292232   20   20    1    1
 -0.5322559810404959   20   20    2    2
 -0.5359807206585785   20   20    3    3
 -0.536392768510355   20   20    4    4
 -0.5366036808393777   20   20    5    5
 -0.5371830991559615   20   20    6    6
 -0.5417143034597611   20   20    7    7
 -0.5569044682812859   20   20    8    8
 -0.5569585855455128   20   20    9    9
 -0.5584146535302389   20   20   10   10
 -0.5589280626636283   20   20   11   11
 -0.5596885285468144   20   20   12   12
 -0.5597648201983306   20   20   13   13
 -0.5619830984911677   20   20   14   14
 -0.5680859345078431   20   20   15   15
 -0.570984598067322   20   20   16   16
 -0.5857556429299611   20   20   17   17
 -0.5860233389947912   20   20   18   18
 -0.5860442876594497   20   20   19   19
 -0.5914133361352318   20   20   20   20
 -0.5296246340258893   21   21    1    1
 -0.5351129685539179   21   21    2    2
 -0.5388577014364422   21   21    3    3
 -0.5392719610352154   21   21    4    4
 -0.5394840054771909   21   21    5    5
 -0.5400665339342982   21   21    6    6
 -0.5446220603586147   21   21    7    7
 -0.5598937613446315   21   21    8    8
 -0.5599481690938012   21   21    9    9
 -0.5614120528066716   21   21   10   10
 -0.5619282177634535   21   21   11   11
 -0.5626927655951947   21   21   12   12
 -0.5627694667569907   21   21   13   13
 -0.5649996520900672   21   21   14   14
 -0.5711352462661943   21   21   15   15
 -0.574049468966181   21   21   16   16
 -0.5888998002854047   21   21   17   17
 -0.5891689332609354   21   21   18   18
 -0.5891899943716264   21   21   19   19
 -0.5945878622594973   21   21   20   20
 -0.5977794282702481   21   21   21   21
 -0.5297700403037677   22   22    1    1
 -0.5352598816316014   22   22    2    2
 -0.5390056426152282   22   22    3    3
 -0.5394200159472805   22   22    4    4
 -0.5396321186051907   22   22    5    5
 -0.5402148069931042   22   22    6    6
 -0.544771584118575   22   22    7    7
 -0.5600474778876585   22   22    8    8
 -0.5601019005742532   22   22    9    9
 -0.5615661861904118   22   22   10   10
 -0.5620824928581722   22   22   11   11
 -0.5628472505933947   22   22   12   12
 -0.5629239728131811   22   22   13   13
 -0.5651547704345226   22   22   14   14
 -0.5712920491129452   22   22   15   15
 -0.5742070719008593   22   22   16   16
 -0.5890614803178305   22   22   17   17
 -0.5893306871827192   22   22   18   18
 -0.589351754075652   22   22   19   19
 -0.5947511039260821   22   22   20   20
 -0.5979435461682323   22   22   21   21
 -0.5981077091241144   22   22   22   22
 -0.5335284043184801   23   23    1    1
 -0.5390571923977784   23   23    2    2
 -0.5428295270496338   23   23    3    3
 -0.5432468400832574   23   23    4    4
 -0.5434604474676267   23   23    5    5
 -0.5440472696398283   23   23    6    6
 -0.5486363740504767   23   23    7    7
 -0.5640206400661323   23   23    8    8
 -0.564075448845279   23   23    9    9
 -0.5655501225882632   23   23   10   10
 -0.5660700921064172   23   23   11   11
 -0.5668402752861409   23   23   12   12
 -0.5669175417987488   23   23   13   13
 -0.5691641654367886   23   23   14   14
 -0.5753449840015363   23   23   15   15
 -0.5782806869259524   23   23   16   16
 -0.5932404774329001   23   23   17   17
 -0.5935115941403933   23   23   18   18
 -0.5935328104888375   23   23   19   19
 -0.5989704651142396   23   23   20   20
 -0.6021855555983233   23   23   21   21
 -0.6023508831805507   23   23   22   22
 -0.6066241597181934   23   23   23   23
 -0.5349238595828516   24   24    1    1
 -0.5404671083288518   24   24    2    2
 -0.5442493096048763   24   24    3    3
 -0.5446677141299084   24   24    4    4
 -0.5448818802090851   24   24    5    5
 -0.5454702372275719   24   24    6    6
 -0.55007134454164   24   24    7    7
 -0.565495848443088   24   24    8    8
 -0.565550800575801   24   24    9    9
 -0.5670293313603618   24   24   10   10
 -0.5675506608702157   24   24   11   11
 -0.5683228584809685   24   24   12   12
 -0.5684003270858379   24   24   13   13
 -0.5706528268173666   24   24   14   14
 -0.5768498114488775   24   24   15   15
 -0.5797931927687967   24   24   16   16
 -0.5947921109365172   24   24   17   17
 -0.595063936755716   24   24   18   18
 -0.5950852085959858   24   24   19   19
 -0.6005370855265386   24   24   20   20
 -0.6037605851504266   24   24   21   21
 -0.6039263451505781   24   24   22   22
 -0.6082107985368987   24   24   23   23
 -0.6098015872442968   24   24   24   24
 -0.5383949204768865   25   25    1    1
 -0.5439741387419191   25   25    2    2
 -0.5477808822975735   25   25    3    3
 -0.5482020018026141   25   25    4    4
 -0.5484175575814441   25   25    5    5
 -0.5490097323825968   25   25    6    6
 -0.5536406957656753   25   25    7    7
 -0.5691652875419546   25   25    8    8
 -0.5692205962528898   25   25    9    9
 -0.5707087210577865   25   25   10   10
 -0.5712334334163246   25   25   11   11
 -0.5720106417307153   25   25   12   12
 -0.5720886130206678   25   25   13   13
 -0.5743557289701721   25   25   14   14
 -0.5805929251395121   25   25   15   15
 -0.583555405730501   25   25   16   16
 -0.5986516501949871   25   25   17   17
 -0.5989252398614217   25   25   18   18
 -0.5989466497322757   25   25   19   19
 -0.6044339032804046   25   25   20   20
 -0.6076783198316009   25   25   21   21
 -0.6078451554297911   25   25   22   22
 -0.6121574101533214   25   25   23   23
 -0.6137585213101183   25   25   24   24
 -0.6177411314770338   25   25   25   25
 -0.5416195844988643   26   26    1    1
 -0.5472322189491649   26   26    2    2
 -0.5510617626251731   26   26    3    3
 -0.551485404384539   26   26    4    4
 -0.5517022512137454   26   26    5    5
 -0.5522979727882856   26   26    6    6
 -0.5569566728762262   26   26    7    7
 -0.5725742476853183   26   26    8    8
 -0.5726298876623993   26   26    9    9
 -0.5741269254461078   26   26   10   10
 -0.5746547805182936   26   26   11   11
 -0.5754366438463066   26   26   12   12
 -0.5755150821377183   26   26   13   13
 -0.5777957767577447   26   26   14   14
 -0.5840703300070281   26   26   15   15
 -0.5870505540874412   26   26   16   16
 -0.6022372160401691   26   26   17   17
 -0.6025124443453064   26   26   18   18
 -0.6025339824485001   26   26   19   19
 -0.6080541013681678   26   26   20   20
 -0.6113179500368063   26   26   21   21
 -0.6114857848805886   26   26   22   22
 -0.6158238674344561   26   26   23   23
 -0.6174345682908327   26   26   24   24
 -0.6214410319140686   26   26   25   25
 -0.625163092544988   26   26   26   26
 -0.5422055975246509   27   27    1    1
 -0.547824304644757   27   27    2    2
 -0.5516579917501041   27   27    3    3
 -0.552082091874707   27   27    4    4
 -0.5522991733244297   27   27    5    5
 -0.5528955394484146   27   27    6    6
 -0.5575592800832869   27   27    7    7
 -0.5731937525499439   27   27    8    8
 -0.5732494527274908   27   27    9    9
 -0.5747481102525573   27   27   10   10
 -0.5752765364450587   27   27   11   11
 -0.5760592457212385   27   27   12   12
 -0.5761377688800771   27   27   13   13
 -0.5784209311301401   27   27   14   14
 -0.5847022732217039   27   27   15   15
 -0.5876857217980195   27   27   16   16
 -0.6028888151760082   27   27   17   17
 -0.6031643412683314   27   27   18   18
 -0.6031859026749826   27   27   19   19
 -0.6087119941659594   27   27   20   20
 -0.6119793742021643   27   27   21   21
 -0.6121473906372469   27   27   22   22
 -0.6164901668413373   27   27   23   23
 -0.6181026104184527   27   27   24   24
 -0.6221134088920851   27   27   25   25
 -0.6258394966595315   27   27   26   26
 -0.6265166326191434   27   27   27   27
 -0.5430708761328553   28   28    1    1
 -0.5486985498647023   28   28    2    2
 -0.5525383549582407   28   28    3    3
 -0.5529631318828752   28   28    4    4
 -0.5531805597619515   28   28    5    5
 -0.5537778775966014   28   28    6    6
 -0.5584490608602919   28   28    7    7
 -0.5741084835942233   28   28    8    8
 -0.5741642726608785   28   28    9    9
 -0.5756653218180185   28   28   10   10
 -0.5761945912992696   28   28   11   11
 -0.5769785496617668   28   28   12   12
 -0.5770571981317603   28   28   13   13
 -0.5793440039654807   28   28   14   14
 -0.5856353701345668   28   28   15   15
 -0.588623579846222   28   28   16   16
 -0.6038509350753215   28   28   17   17
 -0.6041269008658602   28   28   18   18
 -0.6041484966812745   28   28   19   19
 -0.6096834069833738   28   28   20   20
 -0.6129560012668367   28   28   21   21
 -0.613124285830887   28   28   22   22
 -0.6174739924528239   28   28   23   23
 -0.6190890092474433   28   28   24   24
 -0.6231062083523802   28   28   25   25
 -0.6268382423956529   28   28   26   26
 -0.6275164589624429   28   28   27   27
 -0.6285178808782534   28   28   28   28
 -0.5433102844092733   29   29    1    1
 -0.5489404390542527   29   29    2    2
 -0.5527819368939124   29   29    3    3
 -0.5532069010779193   29   29    4    4
 -0.5534244248082666   29   29    5    5
 -0.5540220059655132   29   29    6    6
 -0.5586952484814728   29   29    7    7
 -0.574361574541602   29   29    8    8
 -0.5744173882024031   29   29    9    9
 -0.5759190990845725   29   29   10   10
 -0.5764486018898699   29   29   11   11
 -0.5772329058538873   29   29   12   12
 -0.5773115889954044   29   29   13   13
 -0.5795994029484463   29   29   14   14
 -0.5858935426139524   29   29   15   15
 -0.5888830696529918   29   29   16   16
 -0.604117137734925   29   29   17   17
 -0.6043932251826859   29   29   18   18
 -0.6044148305184358   29   29   19   19
 -0.6099521808396814   29   29   20   20
 -0.6132262178191002   29   29   21   21
 -0.6133945765700002   29   29   22   22
 -0.6177462007239041   29   29   23   23
 -0.6193619294852374   29   29   24   24
 -0.6233808995389695   29   29   25   25
 -0.6271145788183929   29   29   26   26
 -0.6277930943713124   29   29   27   27
 -0.628794957755641   29   29   28   28
 -0.6290721567800641   29   29   29   29
 -0.5514584106243506   30   30    1    1
 -0.5571730017542892   30   30    2    2
 -0.5610721112573956   30   30    3    3
 -0.5615034487089579   30   30    4    4
 -0.5617242346834785   30   30    5    5
 -0.5623307778773968   30   30    6    6
 -0.5670741058876798   30   30    7    7
 -0.5829753827774315   30   30    8    8
 -0.5830320334861697   30   30    9    9
 -0.584556265808035   30   30   10   10
 -0.5850937096661941   30   30   11   11
 -0.58588977598383   30   30   12   12
 -0.5859696391511747   30   30   13   13
 -0.5882917638790739   30   30   14   14
 -0.5946802979374004   30   30   15   15
 -0.5977146594740308   30   30   16   16
 -0.613177195731632   30   30   17   17
 -0.6134574237146181   30   30   18   18
 -0.6134793530696395   30   30   19   19
 -0.6190997480719989   30   30   20   20
 -0.622422886397935   30   30   21   21
 -0.6225937700565922   30   30   22   22
 -0.6270106563339347   30   30   23   23
 -0.6286506164824779   30   30   24   24
 -0.6327298597837302   30   30   25   25
 -0.6365195337514347   30   30   26   26
 -0.6372082251293343   30   30   27   27
 -0.6382251136467039   30   30   28   28
 -0.6385064698768756   30   30   29   29
 -0.6480822711362921   30   30   30   30
 -0.5515403353500664   31   31    1    1
 -0.5572557754403289   31   31    2    2
 -0.5611554641955971   31   31    3    3
 -0.5615868657267015   31   31    4    4
 -0.5618076845012123   31   31    5    5
 -0.5624143178032581   31   31    6    6
 -0.5671583504829026   31   31    7    7
 -0.5830619896682014   31   31    8    8
 -0.5831186487929754   31   31    9    9
 -0.5846431075549721   31   31   10   10
 -0.5851806312558534   31   31   11   11
 -0.5859768158371941   31   31   12   12
 -0.5860566908690203   31   31   13   13
 -0.5883791605720395   31   31   14   14
 -0.5947686437117299   31   31   15   15
 -0.5978034560334635   31   31   16   16
 -0.6132682894072522   31   31   17   17
 -0.6135485590209401   31   31   18   18
 -0.6135704916337891   31   31   19   19
 -0.6191917216026847   31   31   20   20
 -0.6225153536144375   31   31   21   21
 -0.622686262659591   31   31   22   22
 -0.6271038051100734   31   31   23   23
 -0.6287440088912873   31   31   24   24
 -0.6328238582053994   31   31   25   25
 -0.6366140951675101   31   31   26   26
 -0.637302888857481   31   31   27   27
 -0.6383199284439272   31   31   28   28
 -0.6386013264724132   31   31   29   29
 -0.6481785503139802   31   31   30   30
 -0.6482748437949141   31   31   31   31
 -0.5759234115264766   32   32    1    1
 -0.5818915258132947   32   32    2    2
 -0.5859636161172614   32   32    3    3
 -0.5864140895017216   32   32    4    4
 -0.5866446704652419   32   32    5    5
 -0.5872781224513746   32   32    6    6
 -0.5922318843254175   32   32    7    7
 -0.6088386083458284   32   32    8    8
 -0.608897772316879   32   32    9    9
 -0.6104896259577978   32   32   10   10
 -0.6110509130727128   32   32   11   11
 -0.6118822962207821   32   32   12   12
 -0.6119657024521612   32   32   13   13
 -0.6143908463424639   32   32   14   14
 -0.6210628024839232   32   32   15   15
 -0.6242317809858601   32   32   16   16
 -0.640380300005177   32   32   17   17
 -0.6406729600732023   32   32   18   18
 -0.6406958623061054   32   32   19   19
 -0.6465656015312636   32   32   20   20
 -0.6500361681683391   32   32   21   21
 -0.6502146329406083   32   32   22   22
 -0.6548274707614904   32   32   23   23
 -0.65654018639937   32   32   24   24
 -0.6608004019899597   32   32   25   25
 -0.6647582017405925   32   32   26   26
 -0.6654774463476333   32   32   27   27
 -0.6665394482915378   32   32   28   28
 -0.6668332866605117   32   32   29   29
 -0.6768339105029857   32   32   30   30
 -0.676934461027567   32   32   31   31
 -0.7068610928108909   32   32   32   32
 -0.5829979959638555   33   33    1    1
 -0.5890394219577669   33   33    2    2
 -0.5931615334036346   33   33    3    3
 -0.5936175403571966   33   33    4    4
 -0.5938509537537514   33   33    5    5
 -0.5944921869994634   33   33    6    6
 -0.599506800379035   33   33    7    7
 -0.6163175197032645   33   33    8    8
 -0.6163774104385004   33   33    9    9
 -0.6179888182471595   33   33   10   10
 -0.6185570001557372   33   33   11   11
 -0.6193985959295882   33   33   12   12
 -0.6194830267146054   33   33   13   13
 -0.6219379608250682   33   33   14   14
 -0.6286918745951645   33   33   15   15
 -0.6318997805057524   33   33   16   16
 -0.648246666285396   33   33   17   17
 -0.6485429213598427   33   33   18   18
 -0.6485661049214386   33   33   19   19
 -0.6545079474244679   33   33   20   20
 -0.6580211461480815   33   33   21   21
 -0.6582018031634082   33   33   22   22
 -0.6628713046135275   33   33   23   23
 -0.664605059075589   33   33   24   24
 -0.66891760671991   33   33   25   25
 -0.6729240236789453   33   33   26   26
 -0.673652103413369   33   33   27   27
 -0.6747271508808179   33   33   28   28
 -0.6750245987303419   33   33   29   29
 -0.6851480692159354   33   33   30   30
 -0.6852498548929036   33   33   31   31
 -0.7155441023682453   33   33   32   32
 -0.7243337731292503   33   33   33   33
 -0.6119209881980963   34   34    1    1
 -0.6182621341195467   34   34    2    2
 -0.6225887467783909   34   34    3    3
 -0.6230673765980141   34   34    4    4
 -0.6233123698180034   34   34    5    5
 -0.6239854151528039   34   34    6    6
 -0.6292488074730223   34   34    7    7
 -0.6468935198947116   34   34    8    8
 -0.6469563818567476   34   34    9    9
 -0.6486477328828084   34   34   10   10
 -0.6492441027457929   34   34   11   11
 -0.6501274507524132   34   34   12   12
 -0.6502160702155325   34   34   13   13
 -0.6527927955511866   34   34   14   14
 -0.6598817763315911   34   34   15   15
 -0.6632488289946249   34   34   16   16
 -0.6804066967222886   34   34   17   17
 -0.6807176492455721   34   34   18   18
 -0.6807419829620169   34   34   19   19
 -0.6869786049767461   34   34   20   20
 -0.6906660962710098   34   34   21   21
 -0.6908557158239224   34   34   22   22
 -0.6957568749385871   34   34   23   23
 -0.6975766423324072   34   34   24   24
 -0.7021031388803093   34   34   25   25
 -0.7063083173572154   34   34   26   26
 -0.7070725177038031   34   34   27   27
 -0.7082008991274024   34   34   28   28
 -0.7085131036002791   34   34   29   29
 -0.7191388074730635   34   34   30   30
 -0.7192456428180664   34   34   31   31
 -0.7510428118995498   34   34   32   32
 -0.7602685451872223   34   34   33   33
 -0.7979860697424026   34   34   34   34
 -0.761529880663026   35   35    1    1
 -0.7694213767711243   35   35    2    2
 -0.7748058052926349   35   35    3    3
 -0.775401455575023   35   35    4    4
 -0.7757063473195128   35   35    5    5
 -0.7765439458712488   35   35    6    6
 -0.7830941878188268   35   35    7    7
 -0.80505286549777   35   35    8    8
 -0.8051310966148111   35   35    9    9
 -0.807235966965521   35   35   10   10
 -0.8079781436179789   35   35   11   11
 -0.8090774618552015   35   35   12   12
 -0.809187747938659   35   35   13   13
 -0.8123944582414715   35   35   14   14
 -0.8212166277565596   35   35   15   15
 -0.8254068929413128   35   35   16   16
 -0.8467596970043919   35   35   17   17
 -0.8471466744778158   35   35   18   18
 -0.8471769575577195   35   35   19   19
 -0.8549383746527639   35   35   20   20
 -0.8595274226825358   35   35   21   21
 -0.8597634024222176   35   35   22   22
 -0.8658628485724335   35   35   23   23
 -0.868127531877922   35   35   24   24
 -0.8737607140083405   35   35   25   25
 -0.8789940188392713   35   35   26   26
 -0.8799450589407936   35   35   27   27
 -0.8813493189472794   35   35   28   28
 -0.881737854460128   35   35   29   29
 -0.8949614424041039   35   35   30   30
 -0.8950943979802318   35   35   31   31
 -0.9346656740813306   35   35   32   32
 -0.9461470118767189   35   35   33   33
 -0.9930861143546237   35   35   34   34
 -1.235886274107925   35   35   35   35
 -0.7632690176829398   36   36    1    1
 -0.7711785359243418   36   36    2    2
 -0.7765752610860902   36   36    3    3
 -0.7771722716794568   36   36    4    4
 -0.7774778597177275   36   36    5    5
 -0.7783173711276271   36   36    6    6
 -0.7848825721313757   36   36    7    7
 -0.8068913977430916   36   36    8    8
 -0.806969807519743   36   36    9    9
 -0.8090794848491967   36   36   10   10
 -0.8098233564409135   36   36   11   11
 -0.8109251852362791   36   36   12   12
 -0.8110357231845883   36   36   13   13
 -0.8142497567832312   36   36   14   14
 -0.8230920738486509   36   36   15   15
 -0.8272919085138553   36   36   16   16
 -0.8486934768512828   36   36   17   17
 -0.8490813380810333   36   36   18   18
 -0.8491116903196485   36   36   19   19
 -0.8568908324812196   36   36   20   20
 -0.8614903607081806   36   36   21   21
 -0.861726879364472   36   36   22   22
 -0.8678402550700081   36   36   23   23
 -0.8701101103256395   36   36   24   24
 -0.8757561571851141   36   36   25   25
 -0.8810014135289126   36   36   26   26
 -0.8819546255597183   36   36   27   27
 -0.8833620925323717   36   36   28   28
 -0.8837515153597054   36   36   29   29
 -0.8970053025537873   36   36   30   30
 -0.8971385617660173   36   36   31   31
 -0.9368002084132235   36   36   32   32
 -0.9483077666106013   36   36   33   33
 -0.9953540658418755   36   36   34   34
 -1.238708718277592   36   36   35   35
 -1.241537608178761   36   36   36   36
 -0.7665703663782977   37   37    1    1
 -0.7745140954642672   37   37    2    2
 -0.7799341629485246   37   37    3    3
 -0.780533755777116   37   37    4    4
 -0.7808406655678072   37   37    5    5
 -0.7816838080957446   37   37    6    6
 -0.7882774054018012   37   37    7    7
 -0.8103814252452181   37   37    8    8
 -0.8104601741657464   37   37    9    9
 -0.8125789764306265   37   37   10   10
 -0.8133260654718296   37   37   11   11
 -0.8144326599801637   37   37   12   12
 -0.8145436760355401   37   37   13   13
 -0.817771611214598   37   37   14   14
 -0.8266521737363792   37   37   15   15
 -0.8308701738430879   37   37   16   16
 -0.8523643098572748   37   37   17   17
 -0.8527538486936558   37   37   18   18
 -0.8527843322140615   37   37   19   19
 -0.8605971213077512   37   37   20   20
 -0.8652165437609411   37   37   21   21
 -0.865454085425555   37   37   22   22
 -0.8715939031645578   37   37   23   23
 -0.8738735761692569   37   37   24   24
 -0.8795440437362431   37   37   25   25
 -0.8848119872582006   37   37   26   26
 -0.8857693221935412   37   37   27   27
 -0.8871828768484484   37   37   28   28
 -0.8875739840367521   37   37   29   29
 -0.9008850975103607   37   37   30   30
 -0.9010189331053812   37   37   31   31
 -0.9408521272966134   37   37   32   32
 -0.9524094588522196   37   37   33   33
 -0.9996592462835783   37   37   34   34
 -1.244066474607632   37   37   35   35
 -1.246907600236661   37   37   36   36
 -1.252300818989035   37   37   37   37
 -0.7675226081672933   38   38    1    1
 -0.7754762050372628   38   38    2    2
 -0.7809030053864783   38   38    3    3
 -0.7815033430356013   38   38    4    4
 -0.7818106340728693   38   38    5    5
 -0.782654823961342   38   38    6    6
 -0.7892566119034706   38   38    7    7
 -0.8113880895933201   38   38    8    8
 -0.8114669363365875   38   38    9    9
 -0.8135883705999738   38   38   10   10
 -0.8143363876830584   38   38   11   11
 -0.8154443568147547   38   38   12   12
 -0.8155555107754452   38   38   13   13
 -0.8187874557296059   38   38   14   14
 -0.8276790497797555   38   38   15   15
 -0.8319022895306557   38   38   16   16
 -0.8534231257871541   38   38   17   17
 -0.8538131485127832   38   38   18   18
 -0.8538436699001394   38   38   19   19
 -0.8616661641227904   38   38   20   20
 -0.8662913248712418   38   38   21   21
 -0.8665291616126151   38   38   22   22
 -0.8726766062979289   38   38   23   23
 -0.8749591111364629   38   38   24   24
 -0.8806366226180292   38   38   25   25
 -0.8859111100349554   38   38   26   26
 -0.8868696341818432   38   38   27   27