 &FCI NORB=  44,NELEC=66,MS2=0,
  ORBSYM=1,1,1,1,1,1,1,1,1,1,1,1,1,1,1,1,1,1,1,1,1,1,1,1,1,1,1,1,1,1,1,1,1,1,1,1,1,1,1,1,1,1,1,1,
  ISYM=1,
 &END
 -0.467000676915138    1    1    1    1
 -0.4691930986251541    2    2    1    1
 -0.4713958130674768    2    2    2    2
 -0.472335856437609    3    3    1    1
 -0.4745533251421801    3    3    2    2
 -0.4777319869221321    3    3    3    3
 -0.4800182353674131    4    4    1    1
 -0.482271770431591    4    4    2    2
 -0.4855021320432422    4    4    3    3
 -0.4933986558805696    4    4    4    4
 -0.480095061851235    5    5    1    1
 -0.4823489575916589    5    5    2    2
 -0.4855798362197603    5    5    3    3
 -0.4934776238885759    5    5    4    4
 -0.4935566045353406    5    5    5    5
 -0.4808509302771641    6    6    1    1
 -0.4831083745827804    6    6    2    2
 -0.4863443399516901    6    6    3    3
 -0.4942545620086258    6    6    4    4
 -0.4943336670036328    6    6    5    5
 -0.4951119528900175    6    6    6    6
 -0.4818079516855512    7    7    1    1
 -0.4840698889065238    7    7    2    2
 -0.4873122947082993    7    7    3    3
 -0.4952382602137278    7    7    4    4
 -0.4953175226487416    7    7    5    5
 -0.4960973575313083    7    7    6    6
 -0.4970847233902619    7    7    7    7
 -0.4831210529167817    8    8    1    1
 -0.4853891547361995    8    8    2    2
 -0.4886403972685344    8    8    3    3
 -0.4965879639016061    8    8    4    4
 -0.4966674423554728    8    8    5    5
 -0.4974494025706349    8    8    6    6
 -0.4984394593592847    8    8    7    7
 -0.4997978874746548    8    8    8    8
 -0.4843266507649395    9    9    1    1
 -0.4866004124881358    9    9    2    2
 -0.4898597682893444    9    9    3    3
 -0.4978271675692715    9    9    4    4
 -0.4979068443565628    9    9    5    5
 -0.4986907559036884    9    9    6    6
 -0.4996832833160603    9    9    7    7
 -0.50104510130236    9    9    8    8
 -0.5022954274728161    9    9    9    9
 -0.4871041596382625   10   10    1    1
 -0.4893909608944932   10   10    2    2
 -0.4926690083981815   10   10    3    3
 -0.5006820989944184   10   10    4    4
 -0.5007622327108986   10   10    5    5
 -0.5015506398216578   10   10    6    6
 -0.5025488591646524   10   10    7    7
 -0.5039184868833607   10   10    8    8
 -0.5051759834047101   10   10    9    9
 -0.5080730587035404   10   10   10   10
 -0.4888699676863477   11   11    1    1
 -0.4911650588575435   11   11    2    2
 -0.4944549896567232   11   11    3    3
 -0.5024971286188687   11   11    4    4
 -0.5025775528291966   11   11    5    5
 -0.5033688180055128   11   11    6    6
 -0.5043706560072988   11   11    7    7
 -0.505745248782455   11   11    8    8
 -0.5070073038718927   11   11    9    9
 -0.5099148813985881   11   11   10   10
 -0.5117633809106445   11   11   11   11
 -0.4890461626989946   12   12    1    1
 -0.4913420810505138   12   12    2    2
 -0.4946331975829908   12   12    3    3
 -0.5026782350352663   12   12    4    4
 -0.502758688231512   12   12    5    5
 -0.5035502385899564   12   12    6    6
 -0.5045524376670203   12   12    7    7
 -0.50592752586306   12   12    8    8
 -0.5071900358133549   12   12    9    9
 -0.5100986612683194   12   12   10   10
 -0.5119478270033316   12   12   11   11
 -0.5121323395727585   12   12   12   12
 -0.4893713751094522   13   13    1    1
 -0.4916688202312401   13   13    2    2
 -0.494962125334086   13   13    3    3
 -0.5030125126821824   13   13    4    4
 -0.5030930193792628   13   13    5    5
 -0.5038850961133742   13   13    6    6
 -0.5048879616460866   13   13    7    7
 -0.5062639642665324   13   13    8    8
 -0.5075273137774566   13   13    9    9
 -0.5104378734487948   13   13   10   10
 -0.5122882688665892   13   13   11   11
 -0.5124729041356343   13   13   12   12
 -0.512813695171655   13   13   13   13
 -0.4967669194715453   14   14    1    1
 -0.4990990843546063   14   14    2    2
 -0.5024421589887831   14   14    3    3
 -0.5106142064906872   14   14    4    4
 -0.5106959298319768   14   14    5    5
 -0.5114999766953667   14   14    6    6
 -0.5125179978683837   14   14    7    7
 -0.5139147951019585   14   14    8    8
 -0.5151972367744354   14   14    9    9
 -0.5181517817997658   14   14   10   10
 -0.5200301410137604   14   14   11   11
 -0.5202175665529204   14   14   12   12
 -0.5205635077373831   14   14   13   13
 -0.528430438069991   14   14   14   14
 -0.4977877672941673   15   15    1    1
 -0.5001247247375812   15   15    2    2
 -0.5034746693349689   15   15    3    3
 -0.5116635102596467   15   15    4    4
 -0.5117454015410542   15   15    5    5
 -0.5125511007074812   15   15    6    6
 -0.5135712138972108   15   15    7    7
 -0.5149708815260529   15   15    8    8
 -0.5162559585950057   15   15    9    9
 -0.5192165751616119   15   15   10   10
 -0.5210987943727975   15   15   11   11
 -0.5212866050683478   15   15   12   12
 -0.5216332571562363   15   15   13   13
 -0.5295163539008697   15   15   14   14
 -0.5306045012708627   15   15   15   15
 -0.4983887482772941   16   16    1    1
 -0.5007285271379347   16   16    2    2
 -0.5040825161356266   16   16    3    3
 -0.5122812434777557   16   16    4    4
 -0.5123632336268052   16   16    5    5
 -0.5131699055167683   16   16    6    6
 -0.5141912502928645   16   16    7    7
 -0.5155926077455288   16   16    8    8
 -0.516879236292704   16   16    9    9
 -0.5198434272224661   16   16   10   10
 -0.5217279188437555   16   16   11   11
 -0.5219159562838422   16   16   12   12
 -0.5222630268860581   16   16   13   13
 -0.5301556409220812   16   16   14   14
 -0.5312451020163542   16   16   15   15
 -0.5318864761614573   16   16   16   16
 -0.4995272781951309   17   17    1    1
 -0.5018724020966521   17   17    2    2
 -0.5052340530185572   17   17    3    3
 -0.5134515097088095   17   17    4    4
 -0.5135336871579095   17   17    5    5
 -0.5143422018263938   17   17    6    6
 -0.5153658797843446   17   17    7    7
 -0.5167704385279509   17   17    8    8
 -0.5180600062769022   17   17    9    9
 -0.5210309686678325   17   17   10   10
 -0.5229197652620937   17   17   11   11
 -0.523108232258931   17   17   12   12
 -0.5234560957166549   17   17   13   13
 -0.5313667398090167   17   17   14   14
 -0.5324586896915185   17   17   15   15
 -0.5331015290054387   17   17   16   16
 -0.5343193575421286   17   17   17   17
 -0.5014492985331211   18   18    1    1
 -0.5038034457173148   18   18    2    2
 -0.5071780311909916   18   18    3    3
 -0.5154271060121742   18   18    4    4
 -0.5155095996536733   18   18    5    5
 -0.5163212252266151   18   18    6    6
 -0.5173488419681731   18   18    7    7
 -0.5187588050021734   18   18    8    8
 -0.520053334593148   18   18    9    9
 -0.5230357282920129   18   18   10   10
 -0.5249317923682055   18   18   11   11
 -0.5251209845254429   18   18   12   12
 -0.5254701864498927   18   18   13   13
 -0.5334112681569672   18   18   14   14
 -0.5345074195114884   18   18   15   15
 -0.5351527322643764   18   18   16   16
 -0.5363752466136693   18   18   17   17
 -0.5384390460852635   18   18   18   18
 -0.5023304080484527   19   19    1    1
 -0.5046886917654735   19   19    2    2
 -0.5080692068104545   19   19    3    3
 -0.5163327762940862   19   19    4    4
 -0.5164154148872936   19   19    5    5
 -0.5172284665884948   19   19    6    6
 -0.5182578889819736   19   19    7    7
 -0.5196703294984416   19   19    8    8
 -0.5209671337407993   19   19    9    9
 -0.5239547678806704   19   19   10   10
 -0.5258541635800282   19   19   11   11
 -0.5260436881716921   19   19   12   12
 -0.5263935036878636   19   19   13   13
 -0.5343485388747307   19   19   14   14
 -0.5354466163051116   19   19   15   15
 -0.5360930629537066   19   19   16   16
 -0.5373177254145414   19   19   17   17
 -0.5393851512414969   19   19   18   18
 -0.5403329188235388   19   19   19   19
 -0.5034933070820568   20   20    1    1
 -0.5058570502453136   20   20    2    2
 -0.5092453912104777   20   20    3    3
 -0.5175280909255521   20   20    4    4
 -0.5176109208277837   20   20    5    5
 -0.5184258547503722   20   20    6    6
 -0.5194576602651739   20   20    7    7
 -0.5208733705930754   20   20    8    8
 -0.5221731769479392   20   20    9    9
 -0.5251677274854609   20   20   10   10
 -0.5270715203015128   20   20   11   11
 -0.527261483644168   20   20   12   12
 -0.5276121089861419   20   20   13   13
 -0.5355855601450124   20   20   14   14
 -0.5366861796336921   20   20   15   15
 -0.5373341228116052   20   20   16   16
 -0.5385616203761274   20   20   17   17
 -0.5406338323109069   20   20   18   18
 -0.5415837939827106   20   20   19   19
 -0.5428375649281822   20   20   20   20
 -0.5051658193944788   21   21    1    1
 -0.5075374144784829   21   21    2    2
 -0.5109370108901508   21   21    3    3
 -0.5192472242127721   21   21    4    4
 -0.5193303292607293   21   21    5    5
 -0.5201479702441668   21   21    6    6
 -0.521183203227424   21   21    7    7
 -0.5226036162850757   21   21    8    8
 -0.523907740357974   21   21    9    9
 -0.5269122382425084   21   21   10   10
 -0.5288223551087123   21   21   11   11
 -0.5290129494747099   21   21   12   12
 -0.5293647395296863   21   21   13   13
 -0.5373646770291857   21   21   14   14
 -0.5384689525737062   21   21   15   15
 -0.5391190480998781   21   21   16   16
 -0.5403506231859109   21   21   17   17
 -0.542429718628229   21   21   18   18
 -0.5433828358982701   21   21   19   19
 -0.5446407716405997   21   21   20   20
 -0.5464499682746027   21   21   21   21
 -0.5055716047685241   22   22    1    1
 -0.5079451048875905   22   22    2    2
 -0.5113474320986288   22   22    3    3
 -0.5196643207798988   22   22    4    4
 -0.5197474925837838   22   22    5    5
 -0.5205657903550315   22   22    6    6
 -0.5216018549115804   22   22    7    7
 -0.5230234089467524   22   22    8    8
 -0.5243285805855279   22   22    9    9
 -0.5273354918979924   22   22   10   10
 -0.5292471431068959   22   22   11   11
 -0.5294378905719416   22   22   12   12
 -0.5297899632098909   22   22   13   13
 -0.537796326832271   22   22   14   14
 -0.5389014894100144   22   22   15   15
 -0.5395521071394829   22   22   16   16
 -0.5407846715148497   22   22   17   17
 -0.5428654370355643   22   22   18   18
 -0.543819319917674   22   22   19   19
 -0.5450782661241049   22   22   20   20
 -0.5468889160344474   22   22   21   21
 -0.5473282163885772   22   22   22   22
 -0.5080704476811366   23   23    1    1
 -0.5104556790839513   23   23    2    2
 -0.5138748226690847   23   23    3    3
 -0.5222328184816496   23   23    4    4
 -0.5223164013712654   23   23    5    5
 -0.5231387436686827   23   23    6    6
 -0.5241799290875383   23   23    7    7
 -0.5256085093088967   23   23    8    8
 -0.5269201319011446   23   23    9    9
 -0.529941905201409   23   23   10   10
 -0.5318630049553448   23   23   11   11
 -0.532054695210584   23   23   12   12
 -0.5324085080060259   23   23   13   13
 -0.5404544439556587   23   23   14   14
 -0.5415650689202305   23   23   15   15
 -0.5422189023989356   23   23   16   16
 -0.5434575588584398   23   23   17   17
 -0.5455486087901562   23   23   18   18
 -0.5465072063426645   23   23   19   19
 -0.5477723750283163   23   23   20   20
 -0.5495919742737342   23   23   21   21
 -0.5500334459178773   23   23   22   22
 -0.5527520463397918   23   23   23   23
 -0.5162256322675064   24   24    1    1
 -0.5186491497041966   24   24    2    2
 -0.5221231749444064   24   24    3    3
 -0.5306153273467408   24   24    4    4
 -0.5307002518493086   24   24    5    5
 -0.5315357937989773   24   24    6    6
 -0.5325936915838406   24   24    7    7
 -0.5340452023563751   24   24    8    8
 -0.535377878179324   24   24    9    9
 -0.5384481548301657   24   24   10   10
 -0.5404000907076622   24   24   11   11
 -0.5405948578382087   24   24   12   12
 -0.5409543497843846   24   24   13   13
 -0.5491294333613569   24   24   14   14
 -0.5502578852860159   24   24   15   15
 -0.5509222136335566   24   24   16   16
 -0.5521807521234218   24   24   17   17
 -0.5543053660977829   24   24   18   18
 -0.5552793503747513   24   24   19   19
 -0.5565648266461156   24   24   20   20
 -0.5584136328012985   24   24   21   21
 -0.5588621906335166   24   24   22   22
 -0.5616244280911187   24   24   23   23
 -0.5706392229885616   24   24   24   24
 -0.5178137779025065   25   25    1    1
 -0.5202447511848539   25   25    2    2
 -0.5237294641121452   25   25    3    3
 -0.5322477422508369   25   25    4    4
 -0.5323329280199316   25   25    5    5
 -0.5331710404779543   25   25    6    6
 -0.5342321928391971   25   25    7    7
 -0.5356881691212945   25   25    8    8
 -0.5370249448632689   25   25    9    9
 -0.5401046670862721   25   25   10   10
 -0.5420626080093337   25   25   11   11
 -0.5422579743324598   25   25   12   12
 -0.5426185722399236   25   25   13   13
 -0.5508188061048457   25   25   14   14
 -0.551950729662617   25   25   15   15
 -0.5526171017873346   25   25   16   16
 -0.5538795121159544   25   25   17   17
 -0.5560106623725117   25   25   18   18
 -0.5569876430696138   25   25   19   19
 -0.5582770740526425   25   25   20   20
 -0.5601315679792991   25   25   21   21
 -0.5605815057801177   25   25   22   22
 -0.5633522411407431   25   25   23   23
 -0.5723947696613768   25   25   24   24
 -0.5741557171969374   25   25   25   25
 -0.5203032840986944   26   26    1    1
 -0.5227459448318348   26   26    2    2
 -0.5262474113002534   26   26    3    3
 -0.5348066429769005   26   26    4    4
 -0.5348922382957388   26   26    5    5
 -0.5357343801678991   26   26    6    6
 -0.5368006342577772   26   26    7    7
 -0.5382636104733072   26   26    8    8
 -0.5396068130653086   26   26    9    9
 -0.5427013417455441   26   26   10   10
 -0.5446686959099439   26   26   11   11
 -0.5448650015006073   26   26   12   12
 -0.5452273330636116   26   26   13   13
 -0.5534669913971131   26   26   14   14
 -0.5546043569319637   26   26   15   15
 -0.5552739327905413   26   26   16   16
 -0.5565424124407383   26   26   17   17
 -0.5586838086814606   26   26   18   18
 -0.5596654864329917   26   26   19   19
 -0.5609611166454708   26   26   20   20
 -0.5628245264687649   26   26   21   21
 -0.5632766274467542   26   26   22   22
 -0.5660606837407781   26   26   23   23
 -0.5751466862509849   26   26   24   24
 -0.5769160999378686   26   26   25   25
 -0.5796897538396508   26   26   26   26
 -0.5214715569159485   27   27    1    1
 -0.5239197023235539   27   27    2    2
 -0.5274290308759159   27   27    3    3
 -0.5360074811852527   27   27    4    4
 -0.5360932686971587   27   27    5    5
 -0.5369373014884955   27   27    6    6
 -0.5380059497121559   27   27    7    7
 -0.5394722108489945   27   27    8    8
 -0.5408184294263342   27   27    9    9
 -0.5439199064650556   27   27   10   10
 -0.5458916780653288   27   27   11   11
 -0.5460884244344621   27   27   12   12
 -0.5464515695654926   27   27   13   13
 -0.5547097289716352   27   27   14   14
 -0.5558496483116957   27   27   15   15
 -0.5565207276150882   27   27   16   16
 -0.5577920554700533   27   27   17   17
 -0.5599382599353158   27   27   18   18
 -0.5609221419155487   27   27   19   19
 -0.562220681295824   27   27   20   20
 -0.5640882751615998   27   27   21   21
 -0.5645413912730687   27   27   22   22
 -0.5673316988005355   27   27   23   23
 -0.5764381027382839   27   27   24   24
 -0.5782114894116468   27   27   25   25
 -0.5809913711896638   27   27   26   26
 -0.5822959111508057   27   27   27   27
 -0.5221028954586323   28   28    1    1
 -0.5245540048026853   28   28    2    2
 -0.5280675820515383   28   28    3    3
 -0.536656418174339   28   28    4    4
 -0.5367423095480224   28   28    5    5
 -0.5375873641984144   28   28    6    6
 -0.5386573062199879   28   28    7    7
 -0.5401253425393021   28   28    8    8
 -0.5414731909652183   28   28    9    9
 -0.5445784229201338   28   28   10   10
 -0.5465525817175457   28   28   11   11
 -0.5467495662848402   28   28   12   12
 -0.5471131510707565   28   28   13   13
 -0.5553813085185095   28   28   14   14
 -0.5565226079434575   28   28   15   15
 -0.5571944997134627   28   28   16   16
 -0.5584673667478223   28   28   17   17
 -0.5606161695937277   28   28   18   18
 -0.5616012427465326   28   28   19   19
 -0.5629013542508271   28   28   20   20
 -0.5647712091871711   28   28   21   21
 -0.5652248738801717   28   28   22   22
 -0.5680185595951248   28   28   23   23
 -0.5771359885326358   28   28   24   24
 -0.5789115222211967   28   28   25   25
 -0.5816947695643865   28   28   26   26
 -0.5830008889143694   28   28   27   27
 -0.583706720184952   28   28   28   28
 -0.5227448191855266   29   29    1    1
 -0.5251989421601471   29   29    2    2
 -0.5287168393402281   29   29    3    3
 -0.5373162354077092   29   29    4    4
 -0.5374022323845433   29   29    5    5
 -0.538248326026742   29   29    6    6
 -0.5393195835383769   29   29    7    7
 -0.5407894248033323   29   29    8    8
 -0.542138930404285   29   29    9    9
 -0.5452479802312841   29   29   10   10
 -0.5472245662501954   29   29   11   11
 -0.5474217930093427   29   29   12   12
 -0.5477858248215115   29   29   13   13
 -0.5560641479406093   29   29   14   14
 -0.5572068505893025   29   29   15   15
 -0.5578795684479442   29   29   16   16
 -0.5591540004679755   29   29   17   17
 -0.5613054452596415   29   29   18   18
 -0.5622917295565235   29   29   19   19
 -0.5635934395434725   29   29   20   20
 -0.5654655934600749   29   29   21   21
 -0.5659198159322661   29   29   22   22
 -0.5687169364742649   29   29   23   23
 -0.5778455752595169   29   29   24   24
 -0.5796232919606841   29   29   25   25
 -0.5824099612969772   29   29   26   26
 -0.5837176865162402   29   29   27   27
 -0.5844243856039594   29   29   28   28
 -0.5851429333901486   29   29   29   29
 -0.5254018775541125   30   30    1    1
 -0.527868474584425   30   30    2    2
 -0.5314042528755168   30   30    3    3
 -0.5400473587923303   30   30    4    4
 -0.5401337928829885   30   30    5    5
 -0.5409841871325008   30   30    6    6
 -0.5420608897363335   30   30    7    7
 -0.5435382020538754   30   30    8    8
 -0.5448945670535612   30   30    9    9
 -0.5480194198623556   30   30   10   10
 -0.5500060526655296   30   30   11   11
 -0.5502042819080907   30   30   12   12
 -0.5505701640566711   30   30   13   13
 -0.5588905650441939   30   30   14   14
 -0.5600390759333977   30   30   15   15
 -0.560715213148005   30   30   16   16
 -0.5619961229754478   30   30   17   17
 -0.5641585033406067   30   30   18   18
 -0.5651498008195397   30   30   19   19
 -0.5664581272650119   30   30   20   20
 -0.5683397971481984   30   30   21   21
 -0.5687963283866876   30   30   22   22
 -0.5716076664058785   30   30   23   23
 -0.5807827051269843   30   30   24   24
 -0.5825694577800432   30   30   25   25
 -0.5853702914711203   30   30   26   26
 -0.5866846637237161   30   30   27   27
 -0.5873949548905074   30   30   28   28
 -0.5881171549814894   30   30   29   29
 -0.591106494236515   30   30   30   30
 -0.5270096202099617   31   31    1    1
 -0.5294837650877979   31   31    2    2
 -0.533030362947344   31   31    3    3
 -0.5416999169806473   31   31    4    4
 -0.5417866155617468   31   31    5    5
 -0.5426396120385591   31   31    6    6
 -0.5437196093788169   31   31    7    7
 -0.545201442308352   31   31    8    8
 -0.5465619578182664   31   31    9    9
 -0.5496963727534419   31   31   10   10
 -0.5516890847018103   31   31   11   11
 -0.5518879205307247   31   31   12   12
 -0.5522549222876706   31   31   13   13
 -0.5606007839066696   31   31   14   14
 -0.5617528092674164   31   31   15   15
 -0.562431015478515   31   31   16   16
 -0.5637158449215052   31   31   17   17
 -0.5658848422237169   31   31   18   18
 -0.5668791730972943   31   31   19   19
 -0.5681915030538387   31   31   20   20
 -0.5700789308931054   31   31   21   21
 -0.5705368591284026   31   31   22   22
 -0.5733567999110143   31   31   23   23
 -0.582559914476062   31   31   24   24
 -0.5843521346361445   31   31   25   25
 -0.5871615389471403   31   31   26   26
 -0.5884799332111269   31   31   27   27
 -0.5891923978863423   31   31   28   28
 -0.5899168079273491   31   31   29   29
 -0.592915294633951   31   31   30   30
 -0.5947296300050504   31   31   31   31
 -0.5280775832096122   32   32    1    1
 -0.5305567418387803   32   32    2    2
 -0.534110526730865   32   32    3    3
 -0.5427976492535772   32   32    4    4
 -0.5428845235257328   32   32    5    5
 -0.543739248564304   32   32    6    6
 -0.5448214344740963   32   32    7    7
 -0.5463062702762159   32   32    8    8
 -0.5476695428140277   32   32    9    9
 -0.5508103095102486   32   32   10   10
 -0.5528070596062111   32   32   11   11
 -0.5530062983676339   32   32   12   12
 -0.5533740438383228   32   32   13   13
 -0.561736817997563   32   32   14   14
 -0.5628911778896216   32   32   15   15
 -0.5635707584573008   32   32   16   16
 -0.5648581915535323   32   32   17   17
 -0.5670315842382501   32   32   18   18
 -0.5680279300818426   32   32   19   19
 -0.5693429194202714   32   32   20   20
 -0.5712341720532791   32   32   21   21
 -0.5716930282610326   32   32   22   22
 -0.5745186835359449   32   32   23   23
 -0.5837404478285501   32   32   24   24
 -0.5855362998479855   32   32   25   25
 -0.588351397299562   32   32   26   26
 -0.5896724632344987   32   32   27   27
 -0.5903863716896425   32   32   28   28
 -0.5911122497173628   32   32   29   29
 -0.5941168127321284   32   32   30   30
 -0.5959348247781326   32   32   31   31
 -0.5971424618281217   32   32   32   32
 -0.5289132036525707   33   33    1    1
 -0.5313962852576382   33   33    2    2
 -0.5349556935948379   33   33    3    3
 -0.5436565624635442   33   33    4    4
 -0.5437435742039811   33   33    5    5
 -0.5445996517440371   33   33    6    6
 -0.5456835500852939   33   33    7    7
 -0.5471707354648055   33   33    8    8
 -0.5485361652204924   33   33    9    9
 -0.5516819018092848   33   33   10   10
 -0.5536818115265846   33   33   11   11
 -0.5538813655598299   33   33   12   12
 -0.5542496929443187   33   33   13   13
 -0.5626257002065527   33   33   14   14
 -0.5637818867368837   33   33   15   15
 -0.5644625426605958   33   33   16   16
 -0.565752012967738   33   33   17   17
 -0.5679288447898395   33   33   18   18
 -0.5689267672331242   33   33   19   19
 -0.5702438373869642   33   33   20   20
 -0.5721380827040267   33   33   21   21
 -0.5725976649975673   33   33   22   22
 -0.5754277915384214   33   33   23   23
 -0.5846641481845141   33   33   24   24
 -0.5864628419277941   33   33   25   25
 -0.5892823939388031   33   33   26   26
 -0.5906055503046478   33   33   27   27
 -0.5913205884356546   33   33   28   28
 -0.5920476150796735   33   33   29   29
 -0.5950569324607616   33   33   30   30
 -0.5968778212962369   33   33   31   31
 -0.5980873692893121   33   33   32   32
 -0.5990337719550262   33   33   33   33
 -0.5428611284794239   34   34    1    1
 -0.5454096912169858   34   34    2    2
 -0.5490629644068163   34   34    3    3
 -0.5579932831438015   34   34    4    4
 -0.5580825894633986   34   34    5    5
 -0.5589612425509967   34   34    6    6
 -0.5600737242826461   34   34    7    7
 -0.5616001281005212   34   34    8    8
 -0.5630015654874357   34   34    9    9
 -0.5662302580265856   34   34   10   10
 -0.5682829071918793   34   34   11   11
 -0.5684877236474568   34   34   12   12
 -0.5688657641618788   34   34   13   13
 -0.5774626543947704   34   34   14   14
 -0.5786493306211414   34   34   15   15
 -0.5793479360639643   34   34   16   16
 -0.5806714108822176   34   34   17   17
 -0.5829056477499972   34   34   18   18
 -0.5839298863206273   34   34   19   19
 -0.5852816888187737   34   34   20   20
 -0.5872258871169748   34   34   21   21
 -0.5876975890158452   34   34   22   22
 -0.5906023485814937   34   34   23   23
 -0.6000822763982134   34   34   24   24
 -0.6019284033402574   34   34   25   25
 -0.6048223095160394   34   34   26   26
 -0.6061803587251665   34   34   27   27
 -0.6069142530655299   34   34   28   28
 -0.6076604520669563   34   34   29   29
 -0.6107491278991507   34   34   30   30
 -0.6126180352382667   34   34   31   31
 -0.613859480117949   34   34   32   32
 -0.6148308402873635   34   34   33   33
 -0.6310444917567117   34   34   34   34
 -0.5585318174806114   35   35    1    1
 -0.5611539491881458   35   35    2    2
 -0.5649126808552752   35   35    3    3
 -0.5741007897346505   35   35    4    4
 -0.574192674046089   35   35    5    5
 -0.5750966910777112   35   35    6    6
 -0.5762412866490181   35   35    7    7
 -0.5778117529319791   35   35    8    8
 -0.5792536453971685   35   35    9    9
 -0.5825755401090418   35   35   10   10
 -0.5846874427832173   35   35   11   11
 -0.5848981716440292   35   35   12   12
 -0.5852871249960457   35   35   13   13
 -0.5941321803417983   35   35   14   14
 -0.5953531121689353   35   35   15   15
 -0.5960718841480134   35   35   16   16
 -0.5974335635110201   35   35   17   17
 -0.5997322957520601   35   35   18   18
 -0.6007861008605418   35   35   19   19
 -0.6021769256342355   35   35   20   20
 -0.6041772468067582   35   35   21   21
 -0.6046625652520541   35   35   22   22
 -0.6076511760669236   35   35   23   23
 -0.6174047595071093   35   35   24   24
 -0.6193041783126664   35   35   25   25
 -0.6222816224345274   35   35   26   26
 -0.6236788742420505   35   35   27   27
 -0.6244339537978663   35   35   28   28
 -0.6252016932115102   35   35   29   29
 -0.6283795293756065   35   35   30   30
 -0.6303023861764666   35   35   31   31
 -0.6315796676552367   35   35   32   32
 -0.6325790679297986   35   35   33   33
 -0.6492607563913357   35   35   34   34
 -0.668002867145486   35   35   35   35
 -0.5739735259579321   36   36    1    1
 -0.5766681516436959   36   36    2    2
 -0.5805308008260534   36   36    3    3
 -0.5899729330114117   36   36    4    4
 -0.5900673576450064   36   36    5    5
 -0.5909963680020291   36   36    6    6
 -0.5921726081647153   36   36    7    7
 -0.5937864930708522   36   36    8    8
 -0.5952682494836382   36   36    9    9
 -0.5986819844956121   36   36   10   10
 -0.6008522748648238   36   36   11   11
 -0.6010688297386481   36   36   12   12
 -0.6014685364695861   36   36   13   13
 -0.6105581307329799   36   36   14   14
 -0.6118128176171347   36   36   15   15
 -0.6125514614585046   36   36   16   16
 -0.6139507871204419   36   36   17   17
 -0.6163130723266356   36   36   18   18
 -0.6173960119459326   36   36   19   19
 -0.6188252888006471   36   36   20   20
 -0.6208809127785613   36   36   21   21
 -0.6213796488049446   36   36   22   22
 -0.6244508856323545   36   36   23   23
 -0.6344741260327683   36   36   24   24
 -0.6364260579997137   36   36   25   25
 -0.6394858194089669   36   36   26   26
 -0.640921700985477   36   36   27   27
 -0.6416976561978143   36   36   28   28
 -0.6424866212746005   36   36   29   29
 -0.6457523149574608   36   36   30   30
 -0.6477283329090975   36   36   31   31
 -0.6490409273416176   36   36   32   32
 -0.6500679579985659   36   36   33   33
 -0.667210844483332   36   36   34   34
 -0.6864711176795445   36   36   35   35
 -0.7054499592523006   36   36   36   36
 -0.6179279352077766   37   37    1    1
 -0.620828913059295   37   37    2    2
 -0.6249873606631329   37   37    3    3
 -0.6351525633796168   37   37    4    4
 -0.635254218972133   37   37    5    5
 -0.6362543721599366   37   37    6    6
 -0.6375206878037185   37   37    7    7
 -0.6392581626568448   37   37    8    8
 -0.6408533907278706   37   37    9    9
 -0.644528546692207   37   37   10   10
 -0.6468650360701973   37   37   11   11
 -0.6470981745338887   37   37   12   12
 -0.6475284904696715   37   37   13   13
 -0.6573141582070143   37   37   14   14
 -0.6586649279561314   37   37   15   15
 -0.6594601365208295   37   37   16   16
 -0.660966621363525   37   37   17   17
 -0.6635098083814261   37   37   18   18
 -0.6646756786047785   37   37   19   19
 -0.6662144082773709   37   37   20   20
 -0.6684274502083837   37   37   21   21
 -0.6689643790196601   37   37   22   22
 -0.6722708085768914   37   37   23   23
 -0.6830616202861631   37   37   24   24
 -0.6851630295593305   37   37   25   25
 -0.6884571049205466   37   37   26   26
 -0.6900029450989674   37   37   27   27
 -0.6908383223080001   37   37   28   28
 -0.6916877056659448   37   37   29   29
 -0.6952034834208564   37   37   30   30
 -0.6973308231631388   37   37   31   31
 -0.6987439349719086   37   37   32   32
 -0.6998496147716589   37   37   33   33
 -0.7183052890666597   37   37   34   34
 -0.7390404977643263   37   37   35   35
 -0.759472723041818   37   37   36   36
 -0.8176325045874229   37   37   37   37
 -0.618046615767861   38   38    1    1
 -0.6209481507873865   38   38    2    2
 -0.62510739707156   38   38    3    3
 -0.6352745521386062   38   38    4    4
 -0.6353762272553128   38   38    5    5
 -0.6363765725346756   38   38    6    6
 -0.6376431313897468   38   38    7    7
 -0.6393809399460073   38   38    8    8
 -0.6409764743999463   38   38    9    9
 -0.644652336222593   38   38   10   10
 -0.6469892743517276   38   38   11   11
 -0.6472224575924908   38   38   12   12
 -0.647652856175672   38   38   13   13
 -0.6574404033692777   38   38   14   14
 -0.6587914325501202   38   38   15   15
 -0.6595867938442749   38   38   16   16
 -0.6610935680256694   38   38   17   17
 -0.6636372434935055   38   38   18   18
 -0.664803337636385   38   38   19   19
 -0.6663423628406875   38   38   20   20
 -0.668555829813264   38   38   21   21
 -0.6690928617482357   38   38   22   22
 -0.6723999263453952   38   38   23   23
 -0.6831928105610298   38   38   24   24
 -0.6852946234353541   38   38   25   25
 -0.6885893314637251   38   38   26   26