 &FCI NORB=  36,NELEC=52,MS2=0,
  ORBSYM=1,1,1,1,1,1,1,1,1,1,1,1,1,1,1,1,1,1,1,1,1,1,1,1,1,1,1,1,1,1,1,1,1,1,1,1,
  ISYM=1,
 &END
 -0.6979135181626137    1    1    1    1
 -0.6923749406870804    2    2    1    1
 -0.6868803168528711    2    2    2    2
 -0.6866397792928736    3    3    1    1
 -0.681190669171882    3    3    2    2
 -0.6755481506485345    3    3    3    3
 -0.6848039108779338    4    4    1    1
 -0.6793693700397925    4    4    2    2
 -0.6737419379152382    4    4    3    3
 -0.6719405544519721    4    4    4    4
 -0.6686303059066692    5    5    1    1
 -0.6633241173096878    5    5    2    2
 -0.6578295931062761    5    5    3    3
 -0.6560707544709146    5    5    4    4
 -0.6405757652521635    5    5    5    5
 -0.6685077480900365    6    6    1    1
 -0.6632025321006133    6    6    2    2
 -0.6577090150260797    6    6    3    3
 -0.6559504987802673    6    6    4    4
 -0.640458349743947    6    6    5    5
 -0.640340955757621    6    6    6    6
 -0.6329401038763399    7    7    1    1
 -0.6279171494393485    7    7    2    2
 -0.6227159123890137    7    7    3    3
 -0.6210509571832249    7    7    4    4
 -0.606383060740242    7    7    5    5
 -0.6062719126464287    7    7    6    6
 -0.5740154971488161    7    7    7    7
 -0.6307167933857434    8    8    1    1
 -0.6257114829362718    8    8    2    2
 -0.6205285161216627    8    8    3    3
 -0.6188694093561177    8    8    4    4
 -0.6042530364109142    8    8    5    5
 -0.6041422787438119    8    8    6    6
 -0.5719991694287681    8    8    7    7
 -0.5699899244050842    8    8    8    8
 -0.625534610524775    9    9    1    1
 -0.6205704254017527    9    9    2    2
 -0.6154300435984789    9    9    3    3
 -0.6137845686162241    9    9    4    4
 -0.5992882887431576    9    9    5    5
 -0.599178441098573    9    9    6    6
 -0.5672994304597296    9    9    7    7
 -0.5653066940738916    9    9    8    8
 -0.5606619427497759    9    9    9    9
 -0.6233766425275241   10   10    1    1
 -0.6184295828400057   10   10    2    2
 -0.6133069343151764   10   10    3    3
 -0.6116671358890901   10   10    4    4
 -0.5972208652521537   10   10    5    5
 -0.5971113965597445   10   10    6    6
 -0.5653423620654426   10   10    7    7
 -0.5633565002174402   10   10    8    8
 -0.5587277723467737   10   10    9    9
 -0.5568002744408016   10   10   10   10
 -0.6226015254600089   11   11    1    1
 -0.6176606170302312   11   11    2    2
 -0.6125443380932747   11   11    3    3
 -0.6109065786203038   11   11    4    4
 -0.5964782707207702   11   11    5    5
 -0.5963689381435858   11   11    6    6
 -0.5646394058044418   11   11    7    7
 -0.5626560132106705   11   11    8    8
 -0.5580330407785763   11   11    9    9
 -0.556107939556122   11   11   10   10
 -0.5554164655323552   11   11   11   11
 -0.6209388261572358   12   12    1    1
 -0.6160111127561648   12   12    2    2
 -0.6109084971866647   12   12    3    3
 -0.6092751114606612   12   12    4    4
 -0.594885335329046   12   12    5    5
 -0.5947762947318721   12   12    6    6
 -0.5631314982456617   12   12    7    7
 -0.5611534024353834   12   12    8    8
 -0.5565427759625027   12   12    9    9
 -0.5546228158525086   12   12   10   10
 -0.5539331884566896   12   12   11   11
 -0.5524538725723456   12   12   12   12
 -0.6207377933125664   13   13    1    1
 -0.6158116752896565   13   13    2    2
 -0.6107107117239933   13   13    3    3
 -0.6090778548168767   13   13    4    4
 -0.5946927374656567   13   13    5    5
 -0.5945837321710609   13   13    6    6
 -0.5629491808864526   13   13    7    7
 -0.560971725497116   13   13    8    8
 -0.5563625917435122   13   13    9    9
 -0.5544432532326617   13   13   10   10
 -0.5537538491080432   13   13   11   11
 -0.5522750121615073   13   13   12   12
 -0.5520962096578504   13   13   13   13
 -0.6195150581501231   14   14    1    1
 -0.6145986436409768   14   14    2    2
 -0.609507728001477   14   14    3    3
 -0.6078780875113033   14   14    4    4
 -0.5935213060999773   14   14    5    5
 -0.5934125155250394   14   14    6    6
 -0.5618402782780498   14   14    7    7
 -0.559866718098998   14   14    8    8
 -0.5552666634605531   14   14    9    9
 -0.5533511056808119   14   14   10   10
 -0.5526630595509431   14   14   11   11
 -0.5511871356313786   14   14   12   12
 -0.5510086853345805   14   14   13   13
 -0.5499233032269842   14   14   14   14
 -0.6187536043107978   15   15    1    1
 -0.6138432326292704   15   15    2    2
 -0.6087585742989489   15   15    3    3
 -0.6071309368206336   15   15    4    4
 -0.5927918015119845   15   15    5    5
 -0.5926831446529262   15   15    6    6
 -0.5611497132443929   15   15    7    7
 -0.5591785787932645   15   15    8    8
 -0.5545841781404967   15   15    9    9
 -0.5526709747971918   15   15   10   10
 -0.5519837743535745   15   15   11   11
 -0.5505096645108759   15   15   12   12
 -0.5503314335496079   15   15   13   13
 -0.5492473854989681   15   15   14   14
 -0.5485722985500304   15   15   15   15
 -0.6186787087665425   16   16    1    1
 -0.6137689314491643   16   16    2    2
 -0.6086848885791009   16   16    3    3
 -0.6070574481142558   16   16    4    4
 -0.5927200484518084   16   16    5    5
 -0.5926114047448586   16   16    6    6
 -0.5610817902248108   16   16    7    7
 -0.5591108943649188   16   16    8    8
 -0.5545170498303457   16   16    9    9
 -0.5526040780661455   16   16   10   10
 -0.5519169608030557   16   16   11   11
 -0.5504430293904434   16   16   12   12
 -0.550264820002714   16   16   13   13
 -0.5491809031680676   16   16   14   14
 -0.5485058979334085   16   16   15   15
 -0.5484395053540897   16   16   16   16
 -0.6182924985702977   17   17    1    1
 -0.6133857861815074   17   17    2    2
 -0.6083049170253065   17   17    3    3
 -0.606678492490204   17   17    4    4
 -0.5923500429497809   17   17    5    5
 -0.5922414670636674   17   17    6    6
 -0.5607315349061104   17   17    7    7
 -0.5587618693779982   17   17    8    8
 -0.554170892550967   17   17    9    9
 -0.5522591149594287   17   17   10   10
 -0.5515724266293041   17   17   11   11
 -0.5500994153184053   17   17   12   12
 -0.5499213171778898   17   17   13   13
 -0.5488380769783489   17   17   14   14
 -0.548163493115721   17   17   15   15
 -0.5480971419819711   17   17   16   16
 -0.5477549923301945   17   17   17   17
 -0.6172541550129841   18   18    1    1
 -0.6123556828231422   18   18    2    2
 -0.6072833463400146   18   18    3    3
 -0.6056596531779133   18   18    4    4
 -0.5913552664448199   18   18    5    5
 -0.5912468728980881   18   18    6    6
 -0.5597898576611194   18   18    7    7
 -0.5578234999355697   18   18    8    8
 -0.5532402330697966   18   18    9    9
 -0.5513316660653992   18   18   10   10
 -0.5506461309409257   18   18   11   11
 -0.5491755933650441   18   18   12   12
 -0.5489977943176879   18   18   13   13
 -0.5479163732821911   18   18   14   14
 -0.547242922297302   18   18   15   15
 -0.5471766825918364   18   18   16   16
 -0.5468351075368523   18   18   17   17
 -0.5459167675729408   18   18   18   18
 -0.6169374191826317   19   19    1    1
 -0.6120414605792014   19   19    2    2
 -0.6069717268986548   19   19    3    3
 -0.6053488669132892   19   19    4    4
 -0.591051820287626   19   19    5    5
 -0.5909434823616134   19   19    6    6
 -0.5595026088772121   19   19    7    7
 -0.5575372601622004   19   19    8    8
 -0.5529563451393832   19   19    9    9
 -0.551048757490977   19   19   10   10
 -0.5503635741398132   19   19   11   11
 -0.5488937911508976   19   19   12   12
 -0.5487160833387781   19   19   13   13
 -0.5476352172202258   19   19   14   14
 -0.5469621118078292   19   19   15   15
 -0.546895906092395   19   19   16   16
 -0.5465545063121462   19   19   17   17
 -0.5456366375822779   19   19   18   18
 -0.5453566513366256   19   19   19   19
 -0.6161483964697583   20   20    1    1
 -0.6112586994779912   20   20    2    2
 -0.6061954496560948   20   20    3    3
 -0.6045746652027824   20   20    4    4
 -0.5902959035670777   20   20    5    5
 -0.5901877041982049   20   20    6    6
 -0.5587870415399271   20   20    7    7
 -0.5568242063777111   20   20    8    8
 -0.5522491500463695   20   20    9    9
 -0.5503440020781232   20   20   10   10
 -0.549659695031767   20   20   11   11
 -0.5481917917994122   20   20   12   12
 -0.5480143112639916   20   20   13   13
 -0.546934827502694   20   20   14   14
 -0.5462625829482094   20   20   15   15
 -0.5461964619055663   20   20   16   16
 -0.545855498753365   20   20   17   17
 -0.5449388039177244   20   20   18   18
 -0.5446591757562154   20   20   19   19
 -0.5439625922015723   20   20   20   20
 -0.6130609506196953   21   21    1    1
 -0.6081957553141645   21   21    2    2
 -0.6031578768309588   21   21    3    3
 -0.6015452139345032   21   21    4    4
 -0.5873380014639165   21   21    5    5
 -0.5872303442691276   21   21    6    6
 -0.5559870265721756   21   21    7    7
 -0.5540340269419689   21   21    8    8
 -0.5494818956701827   21   21    9    9
 -0.5475862941703229   21   21   10   10
 -0.5469054161046515   21   21   11   11
 -0.5454448683596582   21   21   12   12
 -0.5452682771579527   21   21   13   13
 -0.5441942025605483   21   21   14   14
 -0.5435253265430458   21   21   15   15
 -0.5434595368250315   21   21   16   16
 -0.5431202821983661   21   21   17   17
 -0.5422081808108011   21   21   18   18
 -0.5419299538325326   21   21   19   19
 -0.5412368607746876   21   21   20   20
 -0.5385247876616612   21   21   21   21
 -0.6128824349202801   22   22    1    1
 -0.6080186562989172   22   22    2    2
 -0.6029822447830662   22   22    3    3
 -0.6013700514739242   22   22    4    4
 -0.5871669759663399   22   22    5    5
 -0.5870593501199828   22   22    6    6
 -0.5558251300873089   22   22    7    7
 -0.5538726991462262   22   22    8    8
 -0.5493218933982675   22   22    9    9
 -0.5474268438739124   22   22   10   10
 -0.5467461640714381   22   22   11   11
 -0.5452860416197244   22   22   12   12
 -0.5451095018391734   22   22   13   13
 -0.54403573999889   22   22   14   14
 -0.543367058749738   22   22   15   15
 -0.5433012881888687   22   22   16   16
 -0.5429621323489175   22   22   17   17
 -0.542050296553896   22   22   18   18
 -0.541772150591852   22   22   19   19
 -0.5410792593540574   22   22   20   20
 -0.538367975962882   22   22   21   21
 -0.5382112099257128   22   22   22   22
 -0.6119883472048949   23   23    1    1
 -0.6071316639813897   23   23    2    2
 -0.602102599704437   23   23    3    3
 -0.6004927583018769   23   23    4    4
 -0.5863104025842693   23   23    5    5
 -0.5862029337450992   23   23    6    6
 -0.5550142789478436   23   23    7    7
 -0.5530646962602269   23   23    8    8
 -0.5485205293377307   23   23    9    9
 -0.5466282443574433   23   23   10   10
 -0.5459485575471236   23   23   11   11
 -0.5444905651573477   23   23   12   12
 -0.5443142829172972   23   23   13   13
 -0.5432420875067498   23   23   14   14
 -0.5425743817459726   23   23   15   15
 -0.5425087071327878   23   23   16   16
 -0.5421700460615767   23   23   17   17
 -0.5412595404746608   23   23   18   18
 -0.5409818002786717   23   23   19   19
 -0.5402899198473687   23   23   20   20
 -0.5375825917419624   23   23   21   21
 -0.5374260543988788   23   23   22   22
 -0.5366420442759122   23   23   23   23
 -0.6119155379567695   24   24    1    1
 -0.6070594325407592   24   24    2    2
 -0.6020309665797556   24   24    3    3
 -0.6004213167026431   24   24    4    4
 -0.5862406482829411   24   24    5    5
 -0.5861331922295134   24   24    6    6
 -0.5549482479971994   24   24    7    7
 -0.5529988972546032   24   24    8    8
 -0.5484552709590298   24   24    9    9
 -0.5465632111069614   24   24   10   10
 -0.5458836051600859   24   24   11   11
 -0.5444257862300339   24   24   12   12
 -0.544249524962568   24   24   13   13
 -0.5431774571128508   24   24   14   14
 -0.5425098307901129   24   24   15   15
 -0.5424441639903436   24   24   16   16
 -0.5421055432101904   24   24   17   17
 -0.5411951459476039   24   24   18   18
 -0.5409174387948171   24   24   19   19
 -0.5402256406776533   24   24   20   20
 -0.5375186346674711   24   24   21   21
 -0.5373621159478895   24   24   22   22
 -0.5365781990998812   24   24   23   23
 -0.5365143615196146   24   24   24   24
 -0.6105726555884843   25   25    1    1
 -0.6057272071634102   25   25    2    2
 -0.6007097764480568   25   25    3    3
 -0.599103659036301   25   25    4    4
 -0.5849541108748865   25   25    5    5
 -0.5848468906396895   25   25    6    6
 -0.553730383485972   25   25    7    7
 -0.5517853107010013   25   25    8    8
 -0.5472516556437147   25   25    9    9
 -0.5453637480212556   25   25   10   10
 -0.5446856335070811   25   25   11   11
 -0.5432310138410056   25   25   12   12
 -0.5430551393886042   25   25   13   13
 -0.5419854242508606   25   25   14   14
 -0.5413192630708782   25   25   15   15
 -0.5412537403805197   25   25   16   16
 -0.5409158627223286   25   25   17   17
 -0.540007463376703   25   25   18   18
 -0.5397303656675665   25   25   19   19
 -0.5390400857394931   25   25   20   20
 -0.5363390204031725   25   25   21   21
 -0.5361828451725463   25   25   22   22
 -0.5354006486732594   25   25   23   23
 -0.5353369511880806   25   25   24   24
 -0.5341621247484015   25   25   25   25
 -0.6098471509711442   26   26    1    1
 -0.6050074600839704   26   26    2    2
 -0.5999959912621246   26   26    3    3
 -0.5983917822974431   26   26    4    4
 -0.5842590471433429   26   26    5    5
 -0.5841519543111258   26   26    6    6
 -0.5530724209219698   26   26    7    7
 -0.5511296593431655   26   26    8    8
 -0.5466013913395692   26   26    9    9
 -0.544715726997553   26   26   10   10
 -0.5440384182436865   26   26   11   11
 -0.5425855270095586   26   26   12   12
 -0.5424098615375728   26   26   13   13
 -0.5413414174742289   26   26   14   14
 -0.5406760478511686   26   26   15   15
 -0.5406106030172517   26   26   16   16
 -0.5402731268375726   26   26   17   17
 -0.5393658068850603   26   26   18   18
 -0.5390890384334914   26   26   19   19
 -0.538399578721113   26   26   20   20
 -0.5357017228887807   26   26   21   21
 -0.5355457332312389   26   26   22   22
 -0.5347644661662573   26   26   23   23
 -0.5347008443687449   26   26   24   24
 -0.5335274139005343   26   26   25   25
 -0.5328934572391615   26   26   26   26
 -0.6042484054341145   27   27    1    1
 -0.5994531456764657   27   27    2    2
 -0.594487685003802   27   27    3    3
 -0.5928982035946517   27   27    4    4
 -0.5788952150299126   27   27    5    5
 -0.5787891053711275   27   27    6    6
 -0.5479948998687681   27   27    7    7
 -0.5460699739520661   27   27    8    8
 -0.5415832780378619   27   27    9    9
 -0.5397149251726681   27   27   10   10
 -0.5390438345004255   27   27   11   11
 -0.5376042816385437   27   27   12   12
 -0.5374302288760306   27   27   13   13
 -0.5363715937400904   27   27   14   14
 -0.5357123325906069   27   27   15   15
 -0.5356474885776846   27   27   16   16
 -0.535313110622293   27   27   17   17
 -0.5344141203857214   27   27   18   18
 -0.5341398928267853   27   27   19   19
 -0.5334567627487775   27   27   20   20
 -0.5307836747755338   27   27   21   21
 -0.530629117192238   27   27   22   22
 -0.5298550226056165   27   27   23   23
 -0.5297919848925823   27   27   24   24
 -0.5286293271869997   27   27   25   25
 -0.5280011906102546   27   27   26   26
 -0.5231538377862429   27   27   27   27
 -0.6033152602107464   28   28    1    1
 -0.5985274058077454   28   28    2    2
 -0.5935696133322452   28   28    3    3
 -0.5919825865708378   28   28    4    4
 -0.5780012229235574   28   28    5    5
 -0.5778952771306929   28   28    6    6
 -0.5471486273446806   28   28    7    7
 -0.5452266741051232   28   28    8    8
 -0.540746907028171   28   28    9    9
 -0.5388814394739453   28   28   10   10
 -0.5382113851719267   28   28   11   11
 -0.5367740554220377   28   28   12   12
 -0.5366002714504764   28   28   13   13
 -0.5355432711725044   28   28   14   14
 -0.5348850281248265   28   28   15   15
 -0.5348202842509867   28   28   16   16
 -0.5344864226779125   28   28   17   17
 -0.5335888207585255   28   28   18   18
 -0.5333150166912105   28   28   19   19
 -0.532632941575969   28   28   20   20
 -0.5299639816719951   28   28   21   21
 -0.5298096627731035   28   28   22   22
 -0.5290367636264027   28   28   23   23
 -0.5289738232629689   28   28   24   24
 -0.5278129610581682   28   28   25   25
 -0.5271857945173238   28   28   26   26
 -0.5223459274956626   28   28   27   27
 -0.5215392648668415   28   28   28   28
 -0.5979855647018661   29   29    1    1
 -0.593240006272118   29   29    2    2
 -0.5883260110051972   29   29    3    3
 -0.5867530040605599   29   29    4    4
 -0.5728951519767246   29   29    5    5
 -0.5727901421104871   29   29    6    6
 -0.5423151086618774   29   29    7    7
 -0.5404101339843169   29   29    8    8
 -0.5359699412328384   29   29    9    9
 -0.5341209532452695   29   29   10   10
 -0.5334568182123954   29   29   11   11
 -0.5320321858537678   29   29   12   12
 -0.5318599370922596   29   29   13   13
 -0.5308122743696354   29   29   14   14
 -0.5301598462503148   29   29   15   15
 -0.5300956743247687   29   29   16   16
 -0.5297647620895348   29   29   17   17
 -0.5288750895981502   29   29   18   18
 -0.5286037043198234   29   29   19   19
 -0.5279276546657597   29   29   20   20
 -0.5252822723911809   29   29   21   21
 -0.5251293167476163   29   29   22   22
 -0.5243632454028669   29   29   23   23
 -0.5243008610554905   29   29   24   24
 -0.5231502539237626   29   29   25   25
 -0.5225286277809762   29   29   26   26
 -0.5177315162127737   29   29   27   27
 -0.5169319796529809   29   29   28   28
 -0.5123653952616121   29   29   29   29
 -0.5970003638369141   30   30    1    1
 -0.5922626238705965   30   30    2    2
 -0.5873567245723297   30   30    3    3
 -0.5857863092083156   30   30    4    4
 -0.5719512883910949   30   30    5    5
 -0.571846451532062   30   30    6    6
 -0.541421626702331   30   30    7    7
 -0.5395197905331407   30   30    8    8
 -0.5350869131451049   30   30    9    9
 -0.5332409714259949   30   30   10   10
 -0.532577930577408   30   30   11   11
 -0.5311556453473982   30   30   12   12
 -0.530983680371384   30   30   13   13
 -0.5299377437075167   30   30   14   14
 -0.5292863904849584   30   30   15   15
 -0.5292223242847681   30   30   16   16
 -0.5288919572383141   30   30   17   17
 -0.5280037505115897   30   30   18   18
 -0.5277328123494254   30   30   19   19
 -0.5270578765093787   30   30   20   20
 -0.5244168525890126   30   30   21   21
 -0.5242641489448961   30   30   22   22
 -0.523499339727857   30   30   23   23
 -0.5234370581607425   30   30   24   24
 -0.5222883466920678   30   30   25   25
 -0.5216677446987755   30   30   26   26
 -0.5168785365294931   30   30   27   27
 -0.5160803172324516   30   30   28   28
 -0.5115212564389049   30   30   29   29
 -0.5106785083626428   30   30   30   30
 -0.5943385094209356   31   31    1    1
 -0.5896218936863857   31   31    2    2
 -0.5847378683944051   31   31    3    3
 -0.5831744550647696   31   31    4    4
 -0.5694011206609721   31   31    5    5
 -0.5692967512396044   31   31    6    6
 -0.5390075820295919   31   31    7    7
 -0.5371142256056615   31   31    8    8
 -0.5327011131540739   31   31    9    9
 -0.5308634019628067   31   31   10   10
 -0.5302033174243289   31   31   11   11
 -0.5287873737586625   31   31   12   12
 -0.5286161755254486   31   31   13   13
 -0.5275749023949662   31   31   14   14
 -0.5269264533707249   31   31   15   15
 -0.5268626728234557   31   31   16   16
 -0.5265337787894733   31   31   17   17
 -0.5256495323233134   31   31   18   18
 -0.525379802197169   31   31   19   19
 -0.5247078757036071   31   31   20   20
 -0.5220786273559389   31   31   21   21
 -0.5219266045738356   31   31   22   22
 -0.5211652054230459   31   31   23   23
 -0.5211032015516825   31   31   24   24
 -0.5199596118599461   31   31   25   25
 -0.5193417769540065   31   31   26   26
 -0.5145739224985352   31   31   27   27
 -0.5137792622337649   31   31   28   28
 -0.5092405289924964   31   31   29   29
 -0.5084015384896367   31   31   30   30
 -0.5061347209761241   31   31   31   31
 -0.5909971036929349   32   32    1    1
 -0.5863070050468496   32   32    2    2
 -0.5814504380296192   32   32    3    3
 -0.5798958143008123   32   32    4    4
 -0.5661999143855109   32   32    5    5
 -0.566096131735111   32   32    6    6
 -0.5359772499991395   32   32    7    7
 -0.5340945381353375   32   32    8    8
 -0.5297062364590747   32   32    9    9
 -0.5278788569871955   32   32   10   10
 -0.5272224834824516   32   32   11   11
 -0.525814500334571   32   32   12   12
 -0.5256442645877987   32   32   13   13
 -0.5246088455555238   32   32   14   14
 -0.5239640421494774   32   32   15   15
 -0.523900620180161   32   32   16   16
 -0.5235735752076001   32   32   17   17
 -0.5226943000265919   32   32   18   18
 -0.5224260863389321   32   32   19   19
 -0.5217579374552656   32   32   20   20
 -0.5191434708949964   32   32   21   21
 -0.5189923027938311   32   32   22   22
 -0.5182351842734289   32   32   23   23
 -0.5181735289914428   32   32   24   24
 -0.5170363686275824   32   32   25   25
 -0.516422007225481   32   32   26   26
 -0.5116809579255486   32   32   27   27
 -0.5108907652870862   32   32   28   28
 -0.5063775490685412   32   32   29   29
 -0.5055432754191707   32   32   30   30
 -0.503289202085791   32   32   31   31
 -0.5004596808684483   32   32   32   32
 -0.5728525500098247   33   33    1    1
 -0.568306444872559   33   33    2    2
 -0.5635989822086479   33   33    3    3
 -0.5620920879078334   33   33    4    4
 -0.5488166739639502   33   33    5    5
 -0.5487160776064438   33   33    6    6
 -0.5195218935773118   33   33    7    7
 -0.5176969839705243   33   33    8    8
 -0.5134434101547621   33   33    9    9
 -0.5116721341472144   33   33   10   10
 -0.5110359123559367   33   33   11   11
 -0.5096711565363322   33   33   12   12
 -0.5095061472985002   33   33   13   13
 -0.5085025172819383   33   33   14   14
 -0.5078775103688746   33   33   15   15
 -0.50781603555517   33   33   16   16
 -0.5074990313848808   33   33   17   17
 -0.506646751354313   33   33   18   18
 -0.5063867722546468   33   33   19   19
 -0.5057391366073603   33   33   20   20
 -0.5032049383403857   33   33   21   21
 -0.503058411341029   33   33   22   22
 -0.502324537566755   33   33   23   23
 -0.502264775200262   33   33   24   24
 -0.5011625274732646   33   33   25   25
 -0.5005670279460721   33   33   26   26
 -0.495971536421295   33   33   27   27
 -0.4952056039571364   33   33   28   28
 -0.4908309506747701   33   33   29   29
 -0.4900222905570444   33   33   30   30
 -0.4878374208700915   33   33   31   31
 -0.4850947704670129   33   33   32   32
 -0.470201587320877   33   33   33   33
 -0.5728028799494357   34   34    1    1
 -0.5682571689891998   34   34    2    2
 -0.5635501144930709   34   34    3    3
 -0.5620433508498416   34   34    4    4
 -0.5487690879711187   34   34    5    5
 -0.548668500335974   34   34    6    6
 -0.5194768476334176   34   34    7    7
 -0.5176520962582211   34   34    8    8
 -0.5133988912551111   34   34    9    9
 -0.5116277688287706   34   34   10   10
 -0.5109916022020808   34   34   11   11
 -0.5096269647157262   34   34   12   12
 -0.5094619697852737   34   34   13   13
 -0.5084584267899942   34   34   14   14
 -0.5078334740691151   34   34   15   15
 -0.5077720045856785   34   34   16   16
 -0.507455027901723   34   34   17   17
 -0.5066028217694046   34   34   18   18
 -0.5063428652116255   34   34   19   19
 -0.5056952857185828   34   34   20   20
 -0.5031613071831621   34   34   21   21
 -0.503014792888654   34   34   22   22
 -0.5022809827460331   34   34   23   23
 -0.5022212255613278   34   34   24   24
 -0.5011190734064129   34   34   25   25
 -0.5005236255129216   34   34   26   26
 -0.4959285324472971   34   34   27   27
 -0.4951626663944894   34   34   28   28
 -0.4907883924231565   34   34   29   29
 -0.4899798024215486   34   34   30   30
 -0.4877951221770783   34   34   31   31
 -0.4850527095797164   34   34   32   32
 -0.4701608177699048   34   34   33   33
 -0.470120051753919   34   34   34   34
 -0.572426364164332   35   35    1    1
 -0.5678836411987292   35   35    2    2
 -0.5631796807518468   35   35    3    3
 -0.5616739075371157   35   35    4    4
 -0.5484083701199509   35   35    5    5
 -0.5483078486032456   35   35    6    6
 -0.5191353842086054   35   35    7    7
 -0.5173118322821558   35   35    8    8
 -0.5130614230031545   35   35    9    9
 -0.5112914647740872   35   35   10   10
 -0.5106557163135507   35   35   11   11
 -0.5092919758330815   35   35   12   12
 -0.5091270893573836   35   35   13   13
 -0.5081242060127309   35   35   14   14
 -0.507499664086861   35   35   15   15
 -0.5074382350086521   35   35   16   16
 -0.5071214666803618   35   35   17   17
 -0.5062698207216602   35   35   18   18
 -0.5060100350389777   35   35   19   19
 -0.5053628812140134   35   35   20   20
 -0.50283056831777   35   35   21   21
 -0.5026841503302927   35   35   22   22
 -0.5019508225370307   35   35   23   23
 -0.501891104632022   35   35   24   24
 -0.5007896769456782   35   35   25   25
 -0.5001946204530316   35   35   26   26
 -0.4956025478419716   35   35   27   27
 -0.4948371852095695   35   35   28   28
 -0.4904657865436098   35   35   29   29
 -0.4896577280457879   35   35   30   30
 -0.4874744838391349   35   35   31   31
 -0.4847338738891903   35   35   32   32
 -0.4698517708435987   35   35   33   33
 -0.4698110316240015   35   35   34   34
 -0.4695022146197332   35   35   35   35
 -0.5723198670970154   36   36    1    1
 -0.5677779892823416   36   36    2    2
 -0.5630749039838165   36   36    3    3
 -0.5615694109106747   36   36    4    4
 -0.5483063414805207   36   36    5    5
 -0.5482058386653416   36   36    6    6
 -0.5190388016620637   36   36    7    7
 -0.5172155889983464   36   36    8    8
 -0.5129659704867719   36   36    9    9
 -0.5111963415495969   36   36   10   10
 -0.5105607113668876   36   36   11   11
 -0.5091972246035268   36   36   12   12
 -0.5090323688041345   36   36   13   13
 -0.5080296720409213   36   36   14   14
 -0.5074052463079588   36   36   15   15
 -0.5073438286583233   36   36   16   16
 -0.507027119263199   36   36   17   17
 -0.5061756317489763   36   36   18   18
 -0.5059158943981231   36   36   19   19
 -0.5052688609728971   36   36   20   20
 -0.502737019200826   36   36   21   21
 -0.5025906284536843   36   36   22   22
 -0.5018574370923973   36   36   23   23
 -0.5017977302976065   36   36   24   24
 -0.5006965075263852   36   36   25   25
 -0.5001015617410284   36   36   26   26
 -0.4955103434621524   36   36   27   27
 -0.4947451232216472   36   36   28   28
 -0.4903745378325859   36   36   29   29
 -0.4895666296700135   36   36   30   30
 -0.4873837916450457   36   36   31   31
 -0.4846436915719002   36   36   32   32
 -0.469764357267284   36   36   33   33
 -0.4697236256270153   36   36   34   34
 -0.4694148660766089   36   36   35   35
 -0.469327533784245   36   36   36   36
 -0.3489567590813069    1    1  0  0
 -0.3434401584264355    2    2  0  0
 -0.3377740753242672    3    3  0  0
 -0.335970277225986    4    4  0  0
 -0.3202878826260818    5    5  0  0
 -0.3201704778788105    6    6  0  0
 -0.287007748574408    7    7  0  0
 -0.2849949622025421    8    8  0  0
 -0.2803309713748879    9    9  0  0
 -0.2784001372204008   10   10  0  0
 -0.2777082327661776   11   11  0  0
 -0.2762269362861728   12   12  0  0
 -0.2760481048289252   13   13  0  0
 -0.2749616516134921   14   14  0  0
 -0.2742861492750152   15   15  0  0
 -0.2742197526770448   16   16  0  0
 -0.2738774961650973   17   17  0  0
 -0.2729583837864704   18   18  0  0
 -0.2726783256683128   19   19  0  0
 -0.2719812961007861   20   20  0  0
 -0.2692623938308306   21   21  0  0
 -0.2691056049628564   22   22  0  0
 -0.2683210221379561   23   23  0  0
 -0.2682571807598073   24   24  0  0
 -0.2670810623742008   25   25  0  0
 -0.2664467286195807   26   26  0  0
 -0.2615769188931215   27   27  0  0
 -0.2607696324334208   28   28  0  0
 -0.256182697630806   29   29  0  0
 -0.2553392541813214   30   30  0  0
 -0.2530673604880621   31   31  0  0
 -0.2502298404342241   32   32  0  0
 -0.2351007936604385   33   33  0  0
 -0.2350600258769595   34   34  0  0
 -0.2347511073098666   35   35  0  0
 -0.2346637668921225   36   36  0  0
 -1488.328012158763  0  0  0  0
