 &FCI NORB=  58,NELEC=82,MS2=0,
  ORBSYM=1,1,1,1,1,1,1,1,1,1,1,1,1,1,1,1,1,1,1,1,1,1,1,1,1,1,1,1,1,1,1,1,1,1,1,1,1,1,1,1,1,1,1,1,1,1,1,1,1,1,1,1,1,1,1,1,1,1,
  ISYM=1,
 &END
 -1.401773784230251    1    1    1    1
 -1.400226427363869    2    2    1    1
 -1.39868077855716    2    2    2    2
 -1.000440075215976    3    3    1    1
 -0.9993357331051412    3    3    2    2
 -0.7140098890119819    3    3    3    3
 -1.000376597919185    4    4    1    1
 -0.9992723258781659    4    4    2    2
 -0.7139645855312843    4    4    3    3
 -0.7139192849250642    4    4    4    4
 -1.000209701709527    5    5    1    1
 -0.9991056138979464    5    5    2    2
 -0.7138454724058848    5    5    3    3
 -0.713800179357318    5    5    4    4
 -0.7136810936603564    5    5    5    5
 -0.9989167489627737    6    6    1    1
 -0.9978140883852679    6    6    2    2
 -0.7129226974490659    6    6    3    3
 -0.7128774629499927    6    6    4    4
 -0.7127585311929285    6    6    5    5
 -0.711837161305091    6    6    6    6
 -0.9988563353154152    7    7    1    1
 -0.9977537414258963    7    7    2    2
 -0.7128795804821292    7    7    3    3
 -0.7128343487188005    7    7    4    4
 -0.7127154241546293    7    7    5    5
 -0.71179410999047    7    7    6    6
 -0.7117510612795565    7    7    7    7
 -0.9986913505805948    8    8    1    1
 -0.9975889388105201    8    8    2    2
 -0.7127618315683101    8    8    3    3
 -0.7127166072760762    8    8    4    4
 -0.712597702355108    8    8    5    5
 -0.7116765403677611    8    8    6    6
 -0.7116334987673596    8    8    7    7
 -0.7115159556733907    8    8    8    8
 -0.9072709173887915    9    9    1    1
 -0.9062694206426803    9    9    2    2
 -0.6475154515263919    9    9    3    3
 -0.6474743670761467    9    9    4    4
 -0.6473663467386659    9    9    5    5
 -0.6465295081289811    9    9    6    6
 -0.6464904065664621    9    9    7    7
 -0.6463836233940274    9    9    8    8
 -0.5872135196132993    9    9    9    9
 -0.8815251780792117   10   10    1    1
 -0.8805521009304342   10   10    2    2
 -0.6291408252770425   10   10    3    3
 -0.6291009066853358   10   10    4    4
 -0.6289959516543644   10   10    5    5
 -0.6281828601176611   10   10    6    6
 -0.6281448681450296   10   10    7    7
 -0.6280411151719185   10   10    8    8
 -0.5705500887623066   10   10    9    9
 -0.554359518154567   10   10   10   10
 -0.868397560604958   11   11    1    1
 -0.8674389744598405   11   11    2    2
 -0.61977169970122   11   11    3    3
 -0.6197323755746689   11   11    4    4
 -0.6196289835274135   11   11    5    5
 -0.6188280004987038   11   11    6    6
 -0.6187905743001377   11   11    7    7
 -0.6186883664097728   11   11    8    8
 -0.5620534927473259   11   11    9    9
 -0.546104031098143   11   11   10   10
 -0.5379714842354143   11   11   11   11
 -0.8654872684948036   12   12    1    1
 -0.8645318948940572   12   12    2    2
 -0.617694636418729   12   12    3    3
 -0.6176554440805434   12   12    4    4
 -0.6175523985347904   12   12    5    5
 -0.6167540998694352   12   12    6    6
 -0.6167167990986401   12   12    7    7
 -0.6166149337412697   12   12    8    8
 -0.5601698625764998   12   12    9    9
 -0.5442738529342139   12   12   10   10
 -0.5361685609695225   12   12   11   11
 -0.5343716799054907   12   12   12   12
 -0.849031819560534   13   13    1    1
 -0.8480946104112734   13   13    2    2
 -0.6059504514762538   13   13    3    3
 -0.6059120042992544   13   13    4    4
 -0.6058109179512594   13   13    5    5
 -0.6050277972826239   13   13    6    6
 -0.6049912057087765   13   13    7    7
 -0.6048912771103249   13   13    8    8
 -0.5495193921378352   13   13    9    9
 -0.5339256122156726   13   13   10   10
 -0.5259744256005078   13   13   11   11
 -0.5242117085105361   13   13   12   12
 -0.514244907941484   13   13   13   13
 -0.8471713284671075   14   14    1    1
 -0.8462361730327193   14   14    2    2
 -0.6046226267798687   14   14    3    3
 -0.6045842638525153   14   14    4    4
 -0.6044833990159475   14   14    5    5
 -0.6037019944067052   14   14    6    6
 -0.603665483016304   14   14    7    7
 -0.6035657733922926   14   14    8    8
 -0.5483152253313817   14   14    9    9
 -0.5327556161999828   14   14   10   10
 -0.5248218530918516   14   14   11   11
 -0.5230629986597575   14   14   12   12
 -0.513118038430798   14   14   13   13
 -0.5119936382394469   14   14   14   14
 -0.8442083166949336   15   15    1    1
 -0.8432764319998488   15   15    2    2
 -0.602507937695533   15   15    3    3
 -0.602469708943879   15   15    4    4
 -0.6023691968856549   15   15    5    5
 -0.6015905252667514   15   15    6    6
 -0.6015541415762333   15   15    7    7
 -0.6014547806901687   15   15    8    8
 -0.5463974733809482   15   15    9    9
 -0.5308922845344169   15   15   10   10
 -0.5229862700441826   15   15   11   11
 -0.5212335672678549   15   15   12   12
 -0.5113233898900639   15   15   13   13
 -0.5102029223282667   15   15   14   14
 -0.5084184695095063   15   15   15   15
 -0.8395994486686023   16   16    1    1
 -0.8386726515016674   16   16    2    2
 -0.5992186079001015   16   16    3    3
 -0.5991805878543649   16   16    4    4
 -0.5990806245313313   16   16    5    5
 -0.598306203989628   16   16    6    6
 -0.5982700189321066   16   16    7    7
 -0.5981712004965272   16   16    8    8
 -0.5434144728644494   16   16    9    9
 -0.5279939329934182   16   16   10   10
 -0.5201310805719285   16   16   11   11
 -0.5183879464952044   16   16   12   12
 -0.5085318727062416   16   16   13   13
 -0.5074175222212584   16   16   14   14
 -0.5056428114381757   16   16   15   15
 -0.5028823067851237   16   16   16   16
 -0.8364183800051812   17   17    1    1
 -0.8354950942810297   17   17    2    2
 -0.5969482925263211   17   17    3    3
 -0.5969104165306744   17   17    4    4
 -0.5968108319479972   17   17    5    5
 -0.5960393455255594   17   17    6    6
 -0.5960032975657371   17   17    7    7
 -0.5959048535327721   17   17    8    8
 -0.5413555878167998   17   17    9    9
 -0.5259934731820342   17   17   10   10
 -0.5181604114821591   17   17   11   11
 -0.5164238817799333   17   17   12   12
 -0.5066051506161044   17   17   13   13
 -0.5054950221746367   17   17   14   14
 -0.5037270354036621   17   17   15   15
 -0.5009769897318076   17   17   16   16
 -0.4990788915307452   17   17   17   17
 -0.8315430696439535   18   18    1    1
 -0.83062516556201   18   18    2    2
 -0.5934688039530874   18   18    3    3
 -0.5934311487288135   18   18    4    4
 -0.5933321446041455   18   18    5    5
 -0.5925651550170699   18   18    6    6
 -0.5925293171733763   18   18    7    7
 -0.5924314469503914   18   18    8    8
 -0.5382001376623264   18   18    9    9
 -0.5229275656278187   18   18   10   10
 -0.5151401612302918   18   18   11   11
 -0.5134137534018224   18   18   12   12
 -0.5036522535984246   18   18   13   13
 -0.5025485958668579   18   18   14   14
 -0.5007909143264104   18   18   15   15
 -0.4980568981040255   18   18   16   16
 -0.4961698635262018   18   18   17   17
 -0.4932777916463811   18   18   18   18
 -0.8303296284411331   19   19    1    1
 -0.8294130638239438   19   19    2    2
 -0.5926027760519547   19   19    3    3
 -0.5925651757766093   19   19    4    4
 -0.5924663161251363   19   19    5    5
 -0.5917004457786642   19   19    6    6
 -0.5916646602318603   19   19    7    7
 -0.5915669328274081   19   19    8    8
 -0.537414761358628   19   19    9    9
 -0.5221644760448643   19   19   10   10
 -0.5143884355293826   19   19   11   11
 -0.5126645469864058   19   19   12   12
 -0.5029172917922113   19   19   13   13
 -0.5018152445890877   19   19   14   14
 -0.5000601279707476   19   19   15   15
 -0.497330101400919   19   19   16   16
 -0.4954458205054859   19   19   17   17
 -0.4925579689232162   19   19   18   18
 -0.4918391966117292   19   19   19   19
 -0.8286196587694514   20   20    1    1
 -0.82770498171311   20   20    2    2
 -0.5913823778634597   20   20    3    3
 -0.5913448550216156   20   20    4    4
 -0.5912461989603798   20   20    5    5
 -0.5904819058370007   20   20    6    6
 -0.5904461939864708   20   20    7    7
 -0.5903486678405212   20   20    8    8
 -0.5363080166255   20   20    9    9
 -0.5210891375442466   20   20   10   10
 -0.5133291109020409   20   20   11   11
 -0.5116087725119493   20   20   12   12
 -0.5018815906840338   20   20   13   13
 -0.5007818130221017   20   20   14   14
 -0.499030310867325   20   20   15   15
 -0.4963059064775046   20   20   16   16
 -0.4944255060448102   20   20   17   17
 -0.4915436016652573   20   20   18   18
 -0.4908263095838036   20   20   19   19
 -0.4898155084818032   20   20   20   20
 -0.828470380636141   21   21    1    1
 -0.827555868361412   21   21    2    2
 -0.5912758386853147   21   21    3    3
 -0.5912383226033148   21   21    4    4
 -0.5911396843152423   21   21    5    5
 -0.5903755288813927   21   21    6    6
 -0.5903398234644517   21   21    7    7
 -0.5902423148881083   21   21    8    8
 -0.5362113992465204   21   21    9    9
 -0.5209952618886092   21   21   10   10
 -0.5132366332367595   21   21   11   11
 -0.5115166047704075   21   21   12   12
 -0.5017911753213191   21   21   13   13
 -0.5006915957873878   21   21   14   14
 -0.4989404091705897   21   21   15   15
 -0.4962164955897881   21   21   16   16
 -0.4943364339164552   21   21   17   17
 -0.4914550487199817   21   21   18   18
 -0.4907378858606891   21   21   19   19
 -0.4897272668573152   21   21   20   20
 -0.4896390411298008   21   21   21   21
 -0.8159111772481791   22   22    1    1
 -0.8150105285296225   22   22    2    2
 -0.5823123878607546   22   22    3    3
 -0.5822754405041011   22   22    4    4
 -0.5821782975239487   22   22    5    5
 -0.5814257263105347   22   22    6    6
 -0.5813905621701486   22   22    7    7
 -0.5812945317758513   22   22    8    8
 -0.5280826982338062   22   22    9    9
 -0.5130972300323595   22   22   10   10
 -0.5054562183738602   22   22   11   11
 -0.5037622646928559   22   22   12   12
 -0.4941842679695972   22   22   13   13
 -0.4931013575204402   22   22   14   14
 -0.4913767180312217   22   22   15   15
 -0.4886940976402216   22   22   16   16
 -0.4868425367769227   22   22   17   17
 -0.484004831962473   22   22   18   18
 -0.4832985409393046   22   22   19   19
 -0.4823032424228278   22   22   20   20
 -0.4822163541539382   22   22   21   21
 -0.4749061914608911   22   22   22   22
 -0.8137693413582869   23   23    1    1
 -0.8128710569188374   23   23    2    2
 -0.5807837685621987   23   23    3    3
 -0.5807469181954833   23   23    4    4
 -0.5806500302238748   23   23    5    5
 -0.5798994345735853   23   23    6    6
 -0.5798643627420437   23   23    7    7
 -0.5797685844356583   23   23    8    8
 -0.5266964364599168   23   23    9    9
 -0.5117503063807017   23   23   10   10
 -0.5041293530244558   23   23   11   11
 -0.5024398461152215   23   23   12   12
 -0.4928869924439362   23   23   13   13
 -0.4918069247263536   23   23   14   14
 -0.4900868125617485   23   23   15   15
 -0.487411234276302   23   23   16   16
 -0.4855645339169646   23   23   17   17
 -0.4827342783178045   23   23   18   18
 -0.4820298413683445   23   23   19   19
 -0.4810371555947043   23   23   20   20
 -0.4809504954148738   23   23   21   21
 -0.4736595225175466   23   23   22   22
 -0.4724161261856825   23   23   23   23
 -0.8131451594119099   24   24    1    1
 -0.8122475639796536   24   24    2    2
 -0.5803382925229069   24   24    3    3
 -0.5803014704213675   24   24    4    4
 -0.5802046567653171   24   24    5    5
 -0.5794546368411333   24   24    6    6
 -0.5794195919105857   24   24    7    7
 -0.5793238870686166   24   24    8    8
 -0.5262924467909147   24   24    9    9
 -0.5113577807766251   24   24   10   10
 -0.5037426728869719   24   24   11   11
 -0.5020544618728487   24   24   12   12
 -0.4925089354852235   24   24   13   13
 -0.4914296962072686   24   24   14   14
 -0.4897109034127901   24   24   15   15
 -0.4870373773644788   24   24   16   16
 -0.4851920934716585   24   24   17   17
 -0.4823640087510986   24   24   18   18
 -0.4816601121228375   24   24   19   19
 -0.480668187764634   24   24   20   20
 -0.4805815940553829   24   24   21   21
 -0.4732962135211772   24   24   22   22
 -0.4720537709061751   24   24   23   23
 -0.4716916935624563   24   24   24   24
 -0.8119730860967478   25   25    1    1
 -0.8110767844650409   25   25    2    2
 -0.5795017887098304   25   25    3    3
 -0.5794650196839345   25   25    4    4
 -0.5793683455757882   25   25    5    5
 -0.578619406735749   25   25    6    6
 -0.5785844123192176   25   25    7    7
 -0.5784888454269002   25   25    8    8
 -0.5255338450508501   25   25    9    9
 -0.5106207059721926   25   25   10   10
 -0.5030165745541401   25   25   11   11
 -0.5013307969395855   25   25   12   12
 -0.4917990295427487   25   25   13   13
 -0.4907213458880964   25   25   14   14
 -0.4890050305739859   25   25   15   15
 -0.4863353581654611   25   25   16   16
 -0.484492734078193   25   25   17   17
 -0.481668725779408   25   25   18   18
 -0.480965843752839   25   25   19   19
 -0.479975349161581   25   25   20   20
 -0.479888880269129   25   25   21   21
 -0.4726140009351285   25   25   22   22
 -0.4713733491858996   25   25   23   23
 -0.4710117937430833   25   25   24   24
 -0.4703328739362285   25   25   25   25
 -0.8112087277581617   26   26    1    1
 -0.810313269868246   26   26    2    2
 -0.5789562693668738   26   26    3    3
 -0.5789195349538389   26   26    4    4
 -0.5788229518507542   26   26    5    5
 -0.5780747180311857   26   26    6    6
 -0.5780397565569705   26   26    7    7
 -0.5779442796274268   26   26    8    8
 -0.525039128928417   26   26    9    9
 -0.5101400284705024   26   26   10   10
 -0.5025430552715544   26   26   11   11
 -0.5008588645792742   26   26   12   12
 -0.4913360699994138   26   26   13   13
 -0.4902594008321896   26   26   14   14
 -0.4885447011872981   26   26   15   15
 -0.4858775418994687   26   26   16   16
 -0.4840366523833461   26   26   17   17
 -0.4812153024907673   26   26   18   18
 -0.4805130821286639   26   26   19   19
 -0.4795235199486066   26   26   20   20
 -0.4794371324544424   26   26   21   21
 -0.4721691013950663   26   26   22   22
 -0.4709296175447814   26   26   23   23
 -0.4705684024555092   26   26   24   24
 -0.4698901217560638   26   26   25   25
 -0.4694477863647394   26   26   26   26
 -0.8107830532537772   27   27    1    1
 -0.8098880652473581   27   27    2    2
 -0.5786524672570221   27   27    3    3
 -0.5786157521200409   27   27    4    4
 -0.5785192196980734   27   27    5    5
 -0.5777713785074911   27   27    6    6
 -0.5777364353789959   27   27    7    7
 -0.5776410085501146   27   27    8    8
 -0.5247636193544424   27   27    9    9
 -0.5098723370658673   27   27   10   10
 -0.5022793503104702   27   27   11   11
 -0.5005960433821508   27   27   12   12
 -0.4910782458033388   27   27   13   13
 -0.4900021416086038   27   27   14   14
 -0.4882883417369723   27   27   15   15
 -0.4856225820170583   27   27   16   16
 -0.4837826584911987   27   27   17   17
 -0.4809627890766722   27   27   18   18
 -0.4802609371984058   27   27   19   19
 -0.4792718942822274   27   27   20   20
 -0.4791855521191259   27   27   21   21
 -0.4719213348938633   27   27   22   22
 -0.4706825014516122   27   27   23   23
 -0.4703214759067185   27   27   24   24
 -0.4696435511289868   27   27   25   25
 -0.4692014478491918   27   27   26   26
 -0.4689552385975709   27   27   27   27
 -0.8084868232560358   28   28    1    1
 -0.8075943699576373   28   28    2    2
 -0.5770136575307332   28   28    3    3
 -0.5769770463752036   28   28    4    4
 -0.5768807873440552   28   28    5    5
 -0.5761350641249432   28   28    6    6
 -0.5761002199593698   28   28    7    7
 -0.576005063390142   28   28    8    8
 -0.5232774289861938   28   28    9    9
 -0.5084283205059619   28   28   10   10
 -0.5008568379542976   28   28   11   11
 -0.4991782983430165   28   28   12   12
 -0.4896874562515265   28   28   13   13
 -0.4886143997064959   28   28   14   14
 -0.4869054535113932   28   28   15   15
 -0.4842472435267764   28   28   16   16
 -0.4824125308740064   28   28   17   17
 -0.4796006476509935   28   28   18   18
 -0.4789007834972243   28   28   19   19
 -0.4779145416632887   28   28   20   20
 -0.477828444031032   28   28   21   21
 -0.4705847998967285   28   28   22   22
 -0.4693494749719543   28   28   23   23
 -0.4689894718925436   28   28   24   24
 -0.4683134670750339   28   28   25   25
 -0.467872615882106   28   28   26   26
 -0.4676271039231419   28   28   27   27
 -0.4663027306774556   28   28   28   28
 -0.8077833062647186   29   29    1    1
 -0.8068916295480049   29   29    2    2
 -0.576511560402347   29   29    3    3
 -0.5764749811045661   29   29    4    4
 -0.5763788058346641   29   29    5    5
 -0.5756337315178475   29   29    6    6
 -0.5755989176724498   29   29    7    7
 -0.5755038439051444   29   29    8    8
 -0.5228220912467586   29   29    9    9
 -0.507985903942013   29   29   10   10
 -0.5004210098299762   29   29   11   11
 -0.4987439308252297   29   29   12   12
 -0.489261347332991   29   29   13   13
 -0.4881892245242817   29   29   14   14
 -0.4864817653944605   29   29   15   15
 -0.483825868491315   29   29   16   16
 -0.4819927523414047   29   29   17   17
 -0.4791833159209471   29   29   18   18
 -0.4784840607645166   29   29   19   19
 -0.4774986771237731   29   29   20   20
 -0.4774126544106685   29   29   21   21
 -0.4701753134424538   29   29   22   22
 -0.4689410634542764   29   29   23   23
 -0.4685813736369697   29   29   24   24
 -0.4679059570552377   29   29   25   25
 -0.4674654894756181   29   29   26   26
 -0.4672201911525845   29   29   27   27
 -0.4658969703302331   29   29   28   28
 -0.4654915630614906   29   29   29   29
 -0.8069178211377662   30   30    1    1
 -0.8060270997922893   30   30    2    2
 -0.575893867294338   30   30    3    3
 -0.5758573271887983   30   30    4    4
 -0.5757612549641872   30   30    5    5
 -0.5750169789440606   30   30    6    6
 -0.5749822023993414   30   30    7    7
 -0.5748872304971414   30   30    8    8
 -0.5222619227702539   30   30    9    9
 -0.5074416314358179   30   30   10   10
 -0.4998848425956902   30   30   11   11
 -0.4982095604675615   30   30   12   12
 -0.4887371369215783   30   30   13   13
 -0.4876661628198773   30   30   14   14
 -0.4859605331169213   30   30   15   15
 -0.4833074818275073   30   30   16   16
 -0.4814763297374525   30   30   17   17
 -0.4786699034379249   30   30   18   18
 -0.4779713974860559   30   30   19   19
 -0.4769870696171746   30   30   20   20
 -0.4769011390715834   30   30   21   21
 -0.4696715524242591   30   30   22   22
 -0.4684386248513872   30   30   23   23
 -0.4680793204173692   30   30   24   24
 -0.4674046274987799   30   30   25   25
 -0.4669646318503529   30   30   26   26
 -0.466719596347866   30   30   27   27
 -0.4653977932670457   30   30   28   28
 -0.4649928203647462   30   30   29   29
 -0.4644946120370373   30   30   30   30
 -0.8067882966173295   31   31    1    1
 -0.8058977182483145   31   31    2    2
 -0.575801426186917   31   31    3    3
 -0.5757648919467078   31   31    4    4
 -0.5756688351433804   31   31    5    5
 -0.5749246785926621   31   31    6    6
 -0.5748899076301908   31   31    7    7
 -0.5747949509726535   31   31    8    8
 -0.5221780905344088   31   31    9    9
 -0.5073601781177233   31   31   10   10
 -0.4998046022752823   31   31   11   11
 -0.4981295890594377   31   31   12   12
 -0.4886586860042468   31   31   13   13
 -0.4875878838127494   31   31   14   14
 -0.4858825278933975   31   31   15   15
 -0.4832299024654369   31   31   16   16
 -0.4813990443075398   31   31   17   17
 -0.4785930684888554   31   31   18   18
 -0.4778946746594928   31   31   19   19
 -0.4769105047925689   31   31   20   20
 -0.4768245880403435   31   31   21   21
 -0.4695961618689919   31   31   22   22
 -0.4683634322027078   31   31   23   23
 -0.468004185443379   31   31   24   24
 -0.4673296008248847   31   31   25   25
 -0.4668896758035078   31   31   26   26
 -0.4666446796335342   31   31   27   27
 -0.4653230887253859   31   31   28   28
 -0.4649181808283689   31   31   29   29
 -0.4644200524718702   31   31   30   30
 -0.4643455048748265   31   31   31   31
 -0.8054258651481954   32   32    1    1
 -0.8045367907077832   32   32    2    2
 -0.5748290645571082   32   32    3    3
 -0.574792592012636   32   32    4    4
 -0.5746966974213936   32   32    5    5
 -0.5739537975352884   32   32    6    6
 -0.5739190852908893   32   32    7    7
 -0.5738242889876098   32   32    8    8
 -0.5212962831680659   32   32    9    9
 -0.5065033939083448   32   32   10   10
 -0.4989605772424293   32   32   11   11
 -0.4972883926381622   32   32   12   12
 -0.4878334831917254   32   32   13   13
 -0.4867644892746032   32   32   14   14
 -0.4850620132068559   32   32   15   15
 -0.4824138672939973   32   32   16   16
 -0.4805861009245908   32   32   17   17
 -0.4777848635853478   32   32   18   18
 -0.4770876491406329   32   32   19   19
 -0.4761051412512107   32   32   20   20
 -0.4760193695874644   32   32   21   21
 -0.4688031501317153   32   32   22   22
 -0.4675725021883532   32   32   23   23
 -0.4672138620926215   32   32   24   24
 -0.4665404166519223   32   32   25   25
 -0.4661012345363308   32   32   26   26
 -0.4658566520938408   32   32   27   27
 -0.4645372929694828   32   32   28   28
 -0.464133068844483   32   32   29   29
 -0.4636357816823242   32   32   30   30
 -0.4635613599745534   32   32   31   31
 -0.4627785392676195   32   32   32   32
 -0.8052002841140957   33   33    1    1
 -0.8043114586827361   33   33    2    2
 -0.5746680683184421   33   33    3    3
 -0.5746316059890805   33   33    4    4
 -0.5745357382556806   33   33    5    5
 -0.5737930464385386   33   33    6    6
 -0.5737583439162308   33   33    7    7
 -0.5736635741631891   33   33    8    8
 -0.5211502802151962   33   33    9    9
 -0.5063615340993707   33   33   10   10
 -0.4988208300008026   33   33   11   11
 -0.4971491137365139   33   33   12   12
 -0.4876968523900979   33   33   13   13
 -0.486628157873285   33   33   14   14
 -0.4849261586294499   33   33   15   15
 -0.4822787544006112   33   33   16   16
 -0.4804514999460135   33   33   17   17
 -0.4776510471681349   33   33   18   18
 -0.4769540279969545   33   33   19   19
 -0.4759717952851187   33   33   20   20
 -0.4758860476440188   33   33   21   21
 -0.4686718492833419   33   33   22   22
 -0.4674415460158187   33   33   23   23
 -0.4670830063668284   33   33   24   24
 -0.466409749542519   33   33   25   25
 -0.4659706904316137   33   33   26   26
 -0.4657261764909719   33   33   27   27
 -0.4644071868883892   33   33   28   28
 -0.4640030759771563   33   33   29   29
 -0.4635059280935545   33   33   30   30
 -0.4634315272295715   33   33   31   31
 -0.4626489257724931   33   33   32   32
 -0.4625193485790893   33   33   33   33
 -0.80288480926785   34   34    1    1
 -0.8019985397880588   34   34    2    2
 -0.5730155236244273   34   34    3    3
 -0.5729791661479925   34   34    4    4
 -0.5728835740967174   34   34    5    5
 -0.572143018001898   34   34    6    6
 -0.5721084152719268   34   34    7    7
 -0.5720139180436018   34   34    8    8
 -0.5196516339916918   34   34    9    9
 -0.5049054151455584   34   34   10   10
 -0.4973863954788115   34   34   11   11
 -0.4957194864867461   34   34   12   12
 -0.4862944065432922   34   34   13   13
 -0.4852287852187284   34   34   14   14
 -0.4835316803303911   34   34   15   15
 -0.4808918891116578   34   34   16   16
 -0.4790698892028056   34   34   17   17
 -0.4762774895492158   34   34   18   18
 -0.4755824747617769   34   34   19   19
 -0.474603066608231   34   34   20   20
 -0.4745175655474043   34   34   21   21
 -0.4673241127020601   34   34   22   22
 -0.4660973473571201   34   34   23   23
 -0.4657398387429605   34   34   24   24
 -0.4650685179701808   34   34   25   25
 -0.4646307214399617   34   34   26   26
 -0.4643869106360305   34   34   27   27
 -0.463071713986962   34   34   28   28
 -0.4626687651575969   34   34   29   29
 -0.4621730468977073   34   34   30   30
 -0.4620988599846289   34   34   31   31
 -0.4613185090160616   34   34   32   32
 -0.4611893044414184   34   34   33   33
 -0.4598630850462445   34   34   34   34
 -0.8022411628730718   35   35    1    1
 -0.8013556038864283   35   35    2    2
 -0.5725561558898837   35   35    3    3
 -0.5725198275600442   35   35    4    4
 -0.5724243121417787   35   35    5    5
 -0.5716843497264698   35   35    6    6
 -0.5716497747363711   35   35    7    7
 -0.5715553532633719   35   35    8    8
 -0.5192350463356563   35   35    9    9
 -0.5045006490490884   35   35   10   10
 -0.4969876571335766   35   35   11   11
 -0.4953220844477295   35   35   12   12
 -0.4859045602814632   35   35   13   13
 -0.4848397932305334   35   35   14   14
 -0.4831440488554731   35   35   15   15
 -0.4805063738707017   35   35   16   16
 -0.4786858345993646   35   35   17   17
 -0.4758956735209091   35   35   18   18
 -0.4752012159040097   35   35   19   19
 -0.4742225929098288   35   35   20   20
 -0.4741371603923957   35   35   21   21
 -0.4669494743020536   35   35   22   22
 -0.4657236924146188   35   35   23   23
 -0.4653664704033791   35   35   24   24
 -0.464695687806425   35   35   25   25
 -0.4642582422433124   35   35   26   26
 -0.464014626894499   35   35   27   27
 -0.4627004845954092   35   35   28   28
 -0.4622978587968927   35   35   29   29
 -0.4618025379380589   35   35   30   30
 -0.4617284104981932   35   35   31   31
 -0.4609486851113804   35   35   32   32
 -0.4608195841158031   35   35   33   33
 -0.4594944279071817   35   35   34   34
 -0.4591260663084452   35   35   35   35
 -0.8010423737959296   36   36    1    1
 -0.8001581381001985   36   36    2    2
 -0.571700585149443   36   36    3    3
 -0.5716643111050317   36   36    4    4
 -0.5715689384154684   36   36    5    5
 -0.5708300817260958   36   36    6    6
 -0.5707955584014096   36   36    7    7
 -0.5707012780224301   36   36    8    8
 -0.5184591533363649   36   36    9    9
 -0.503746773661636   36   36   10   10
 -0.4962450084109499   36   36   11   11
 -0.4945819245905903   36   36   12   12
 -0.4851784730319472   36   36   13   13
 -0.4841152970625642   36   36   14   14
 -0.4824220866385508   36   36   15   15
 -0.4797883531318624   36   36   16   16
 -0.4779705342926024   36   36   17   17
 -0.4751845425522202   36   36   18   18
 -0.4744911226634307   36   36   19   19
 -0.4735139620257211   36   36   20   20
 -0.4734286571701102   36   36   21   21
 -0.4662517116400557   36   36   22   22
 -0.4650277614386595   36   36   23   23
 -0.4646710732243191   36   36   24   24
 -0.4640012929778894   36   36   25   25
 -0.4635645010897404   36   36   26   26
 -0.4633212497753753   36   36   27   27
 -0.4620090711992992   36   36   28   28
 -0.4616070470445672   36   36   29   29
 -0.4611124663437591   36   36   30   30
 -0.4610384496725368   36   36   31   31
 -0.4602598894294739   36   36   32   32
 -0.4601309813495317   36   36   33   33
 -0.4588078053220103   36   36   34   34
 -0.4584399941660601   36   36   35   35
 -0.4577549472213693   36   36   36   36
 -0.7998546881455761   37   37    1    1
 -0.7989717634841695   37   37    2    2
 -0.5708529388781689   37   37    3    3
 -0.5708167186163832   37   37    4    4
 -0.5707214873335401   37   37    5    5
 -0.5699837261286467   37   37    6    6
 -0.5699492539908372   37   37    7    7
 -0.5698551133990362   37   37    8    8
 -0.5176904468148934   37   37    9    9
 -0.5029998808204313   37   37   10   10
 -0.4955092382509317   37   37   11   11
 -0.4938486202436844   37   37   12   12
 -0.4844591109493276   37   37   13   13
 -0.4833975113245725   37   37   14   14
 -0.4817068113816389   37   37   15   15
 -0.4790769828462668   37   37   16   16
 -0.4772618592418919   37   37   17   17
 -0.4744799982223308   37   37   18   18
 -0.4737876064500038   37   37   19   19
 -0.4728118946241242   37   37   20   20
 -0.472726716247906   37   37   21   21
 -0.4655604117968983   37   37   22   22
 -0.4643382763160943   37   37   23   23
 -0.4639821169545182   37   37   24   24
 -0.4633133297746399   37   37   25   25
 -0.4628771855069848   37   37   26   26
 -0.4626342948553074   37   37   27   27
 -0.4613240618138452   37   37   28   28
 -0.4609226337303516   37   37   29   29
 -0.460428786332076   37   37   30   30
 -0.4603548794035354   37   37   31   31
 -0.4595774735124254   37   37   32   32
 -0.4594487565612946   37   37   33   33
 -0.4581275423740356   37   37   34   34
 -0.4577602765625594   37   37   35   35
 -0.4570762453199745   37   37   36   36
 -0.4563985497130474   37   37   37   37
 -0.7990591708953674   38   38    1    1
 -0.7981771243707139   38   38    2    2
 -0.5702851815505688   38   38    3    3
 -0.5702489973126302   38   38    4    4
 -0.5701538607446516   38   38    5    5
 -0.5694168333002445   38   38    6    6
 -0.569382395447638   38   38    7    7
 -0.5692883484859248   38   38    8    8
 -0.5171755636907295   38   38    9    9
 -0.5024996085985191   38   38   10   10
 -0.4950164160514641   38   38   11   11
 -0.4933574496570539   38   38   12   12
 -0.4839772789547256   38   38   13   13
 -0.4829167351727714   38   38   14   14
 -0.4812277167614829   38   38   15   15
 -0.4786005037936582   38   38   16   16
 -0.4767871854698673   38   38   17   17
 -0.4740080912258989   38   38   18   18
 -0.4733163880906541   38   38   19   19
 -0.4723416466855275   38   38   20   20
 -0.4722565530257817   38   38   21   21
 -0.4650973760179152   38   38   22   22
 -0.4638764560452173   38   38   23   23
 -0.4635206509116281   38   38   24   24
 -0.4628525288922423   38   38   25   25
 -0.4624168184037393   38   38   26   26