 &FCI NORB=  34,NELEC=56,MS2=0,
  ORBSYM=1,1,1,1,1,1,1,1,1,1,1,1,1,1,1,1,1,1,1,1,1,1,1,1,1,1,1,1,1,1,1,1,1,1,
  ISYM=1,
 &END
 -0.513932480025208    1    1    1    1
 -0.5187634462096504    2    2    1    1
 -0.5236398234844255    2    2    2    2
 -0.5212440822881234    3    3    1    1
 -0.526143777546246    3    3    2    2
 -0.5286597050784989    3    3    3    3
 -0.5225273601830769    4    4    1    1
 -0.52743911825559    4    4    2    2
 -0.529961239880586    4    4    3    3
 -0.5312659789988423    4    4    4    4
 -0.5255068681399623    5    5    1    1
 -0.5304466335923266    5    5    2    2
 -0.5329831366297088    5    5    3    3
 -0.5342953155126182    5    5    4    4
 -0.5373419256333564    5    5    5    5
 -0.5300469112158958    6    6    1    1
 -0.5350293530808788    6    6    2    2
 -0.5375877698814299    6    6    3    3
 -0.5389112851502418    6    6    4    4
 -0.5419842160329382    6    6    5    5
 -0.5466666128510331    6    6    6    6
 -0.5347689769311456    7    7    1    1
 -0.539795806221866    7    7    2    2
 -0.5423770153677802    7    7    3    3
 -0.5437123215289495    7    7    4    4
 -0.5468126284443319    7    7    5    5
 -0.5515367396560249    7    7    6    6
 -0.5564502532977817    7    7    7    7
 -0.5357896338262058    8    8    1    1
 -0.5408260572934719    8    8    2    2
 -0.5434121929198403    8    8    3    3
 -0.5447500476384227    8    8    4    4
 -0.5478562717811808    8    8    5    5
 -0.5525893994034908    8    8    6    6
 -0.5575122909482184    8    8    7    7
 -0.5585763555974106    8    8    8    8
 -0.5385327399822988    9    9    1    1
 -0.5435949486520876    9    9    2    2
 -0.5461943246327094    9    9    3    3
 -0.5475390288259415    9    9    4    4
 -0.5506611560433958    9    9    5    5
 -0.5554185160709235    9    9    6    6
 -0.5603666115637113    9    9    7    7
 -0.5614361239522874    9    9    8    8
 -0.5643105335911384    9    9    9    9
 -0.5385507965249644   10   10    1    1
 -0.5436131749262849   10   10    2    2
 -0.5462126380617626   10   10    3    3
 -0.5475573873417775   10   10    4    4
 -0.5506796192414899   10   10    5    5
 -0.5554371387792348   10   10    6    6
 -0.560385400177437   10   10    7    7
 -0.5614549484258498   10   10    8    8
 -0.5643294544412001   10   10    9    9
 -0.5643483759256617   10   10   10   10
 -0.5406787112337172   11   11    1    1
 -0.5457610920369114   11   11    2    2
 -0.5483708261363845   11   11    3    3
 -0.5497208887717802   11   11    4    4
 -0.5528554571924418   11   11    5    5
 -0.5576317745777934   11   11    6    6
 -0.5625995874802917   11   11    7    7
 -0.5636733617134476   11   11    8    8
 -0.5665592254385442   11   11    9    9
 -0.5665782216853222   11   11   10   10
 -0.5688168779817433   11   11   11   11
 -0.5408550992561781   12   12    1    1
 -0.5459391381070827   12   12    2    2
 -0.5485497235917268   12   12    3    3
 -0.5499002266640649   12   12    4    4
 -0.553035817688934   12   12    5    5
 -0.5578136932735651   12   12    6    6
 -0.5627831268477776   12   12    7    7
 -0.563857251383081   12   12    8    8
 -0.5667440565763451   12   12    9    9
 -0.5667630590203533   12   12   10   10
 -0.5690024456435819   12   12   11   11
 -0.5691880738439848   12   12   12   12
 -0.5481936392690095   13   13    1    1
 -0.5533466604084891   13   13    2    2
 -0.5559926673693518   13   13    3    3
 -0.5573614946117817   13   13    4    4
 -0.560539630599676   13   13    5    5
 -0.5653823343262667   13   13    6    6
 -0.5704191951784612   13   13    7    7
 -0.5715078938684538   13   13    8    8
 -0.574433868398291   13   13    9    9
 -0.5744531286751197   13   13   10   10
 -0.5767229001987799   13   13   11   11
 -0.5769110470774351   13   13   12   12
 -0.5847388087249534   13   13   13   13
 -0.5501889480538057   14   14    1    1
 -0.5553607250992486   14   14    2    2
 -0.558016362965243   14   14    3    3
 -0.5593901724490309   14   14    4    4
 -0.5625798761790544   14   14    5    5
 -0.567440206321925   14   14    6    6
 -0.5724954002812305   14   14    7    7
 -0.573588061603958   14   14    8    8
 -0.576524686061604   14   14    9    9
 -0.5765440164417627   14   14   10   10
 -0.5788220494532188   14   14   11   11
 -0.5790108811466784   14   14   12   12
 -0.5868671341893201   14   14   13   13
 -0.5890032063077736   14   14   14   14
 -0.5551896513701272   15   15    1    1
 -0.5604084350352304   15   15    2    2
 -0.5630882101673957   15   15    3    3
 -0.5644745062953915   15   15    4    4
 -0.5676932014511376   15   15    5    5
 -0.5725977074524108   15   15    6    6
 -0.5776988484000851   15   15    7    7
 -0.5788014409930055   15   15    8    8
 -0.5817647566223227   15   15    9    9
 -0.5817842626975703   15   15   10   10
 -0.5840830008999893   15   15   11   11
 -0.5842735488970552   15   15   12   12
 -0.5922012079371878   15   15   13   13
 -0.5943566949547672   15   15   14   14
 -0.5997588418100464   15   15   15   15
 -0.5613564964559057   16   16    1    1
 -0.5666332484752811   16   16    2    2
 -0.5693427895767218   16   16    3    3
 -0.5707444841788126   16   16    4    4
 -0.5739989314318011   16   16    5    5
 -0.5789579149051552   16   16    6    6
 -0.5841157174745067   16   16    7    7
 -0.5852305572656529   16   16    8    8
 -0.5882267883291488   16   16    9    9
 -0.5882465110707984   16   16   10   10
 -0.5905707828226128   16   16   11   11
 -0.5907634473576517   16   16   12   12
 -0.5987791639562648   16   16   13   13
 -0.6009585933410858   16   16   14   14
 -0.6064207452823837   16   16   15   15
 -0.6131566467598873   16   16   16   16
 -0.5635474403057642   17   17    1    1
 -0.5688447872010466   17   17    2    2
 -0.5715649034939202   17   17    3    3
 -0.5729720688337459   17   17    4    4
 -0.5762392180172163   17   17    5    5
 -0.5812175561331392   17   17    6    6
 -0.5863954893251688   17   17    7    7
 -0.5875146802753368   17   17    8    8
 -0.5905226054655823   17   17    9    9
 -0.5905424051840191   17   17   10   10
 -0.5928757484419659   17   17   11   11
 -0.5930691649361978   17   17   12   12
 -0.6011161664403832   17   17   13   13
 -0.6033041020194623   17   17   14   14
 -0.6087875724424706   17   17   15   15
 -0.6155497637767917   17   17   16   16
 -0.6179522209991507   17   17   17   17
 -0.5663691972054384   18   18    1    1
 -0.5716930686203666   18   18    2    2
 -0.5744268048968804   18   18    3    3
 -0.5758410161005012   18   18    4    4
 -0.5791245243339672   18   18    5    5
 -0.584127789650198   18   18    6    6
 -0.5893316494415973   18   18    7    7
 -0.5904564443295349   18   18    8    8
 -0.5934794306008043   18   18    9    9
 -0.5934993294590617   18   18   10   10
 -0.5958443560766806   18   18   11   11
 -0.5960387410329943   18   18   12   12
 -0.6041260349427379   18   18   13   13
 -0.6063249258059239   18   18   14   14
 -0.6118358526938075   18   18   15   15
 -0.618631903218482   18   18   16   16
 -0.6210463898633146   18   18   17   17
 -0.6241560516420351   18   18   18   18
 -0.5718303124242418   19   19    1    1
 -0.5772055183314949   19   19    2    2
 -0.5799656141785106   19   19    3    3
 -0.5813934616645509   19   19    4    4
 -0.584708630547772   19   19    5    5
 -0.5897601389684953   19   19    6    6
 -0.5950141760612796   19   19    7    7
 -0.5961498165857929   19   19    8    8
 -0.5992019514696877   19   19    9    9
 -0.5992220421991806   19   19   10   10
 -0.6015896803228863   19   19   11   11
 -0.6017859396019004   19   19   12   12
 -0.6099512138186017   19   19   13   13
 -0.6121713070996041   19   19   14   14
 -0.617735372129261   19   19   15   15
 -0.6245969523740036   19   19   16   16
 -0.6270347202810002   19   19   17   17
 -0.6301743664256587   19   19   18   18
 -0.6362507117494646   19   19   19   19
 -0.5754443771982892   20   20    1    1
 -0.5808535553205518   20   20    2    2
 -0.5836310954424807   20   20    3    3
 -0.5850679671673378   20   20    4    4
 -0.5884040884814122   20   20    5    5
 -0.5934875232940082   20   20    6    6
 -0.5987747667942985   20   20    7    7
 -0.5999175847599625   20   20    8    8
 -0.6029890096551243   20   20    9    9
 -0.6030092273614427   20   20   10   10
 -0.6053918293605406   20   20   11   11
 -0.6055893290315582   20   20   12   12
 -0.6138062091692396   20   20   13   13
 -0.6160403338171485   20   20   14   14
 -0.6216395646835708   20   20   15   15
 -0.6285445112817892   20   20   16   16
 -0.630997686296329   20   20   17   17
 -0.6341571755382979   20   20   18   18
 -0.6402719243974053   20   20   19   19
 -0.6443185517928055   20   20   20   20
 -0.5954027091171755   21   21    1    1
 -0.6009994955933474   21   21    2    2
 -0.6038733700785408   21   21    3    3
 -0.6053600773113041   21   21    4    4
 -0.6088119064490125   21   21    5    5
 -0.6140716517501595   21   21    6    6
 -0.6195422745046335   21   21    7    7
 -0.6207247292122404   21   21    8    8
 -0.623902681375633   21   21    9    9
 -0.623923600299496   21   21   10   10
 -0.6263888388893972   21   21   11   11
 -0.6265931885082885   21   21   12   12
 -0.6350950574782946   21   21   13   13
 -0.6374066690268285   21   21   14   14
 -0.6432000999107513   21   21   15   15
 -0.6503445331067197   21   21   16   16
 -0.6528827924198213   21   21   17   17
 -0.6561518632955397   21   21   18   18
 -0.6624786920570086   21   21   19   19
 -0.6666656699987165   21   21   20   20
 -0.6897878608619634   21   21   21   21
 -0.5995937367774519   22   22    1    1
 -0.605229918920743   22   22    2    2
 -0.6081240225504719   22   22    3    3
 -0.6096211946854602   22   22    4    4
 -0.6130973211788457   22   22    5    5
 -0.6183940897210792   22   22    6    6
 -0.6239032200787801   22   22    7    7
 -0.6250939980612239   22   22    8    8
 -0.6282943197657955   22   22    9    9
 -0.6283153859375419   22   22   10   10
 -0.6307979772921538   22   22   11   11
 -0.6310037653238908   22   22   12   12
 -0.6395654787780951   22   22   13   13
 -0.6418933617136943   22   22   14   14
 -0.6477275724407563   22   22   15   15
 -0.6549222951578886   22   22   16   16
 -0.6574784212270987   22   22   17   17
 -0.6607705030267745   22   22   18   18
 -0.6671418662082842   22   22   19   19
 -0.6713583162032728   22   22   20   20
 -0.6946432637016344   22   22   21   21
 -0.6995328436239611   22   22   22   22
 -0.6021426747856304   23   23    1    1
 -0.6078028169505243   23   23    2    2
 -0.6107092237286835   23   23    3    3
 -0.6122127605048039   23   23    4    4
 -0.6157036643889404   23   23    5    5
 -0.6210229500687451   23   23    6    6
 -0.6265555003371278   23   23    7    7
 -0.6277513404459293   23   23    8    8
 -0.6309652670651804   23   23    9    9
 -0.6309864227915076   23   23   10   10
 -0.6334795679112348   23   23   11   11
 -0.6336862307702149   23   23   12   12
 -0.6422843409969338   23   23   13   13
 -0.6446221200153789   23   23   14   14
 -0.6504811326050318   23   23   15   15
 -0.6577064408687887   23   23   16   16
 -0.6602734333071616   23   23   17   17
 -0.6635795101036337   23   23   18   18
 -0.6699779586410787   23   23   19   19
 -0.6742123332223205   23   23   20   20
 -0.6975962675580298   23   23   21   21
 -0.7025066336149398   23   23   22   22
 -0.7054930655097135   23   23   23   23
 -0.621714757519627   24   24    1    1
 -0.6275588772954366   24   24    2    2
 -0.6305597540992273   24   24    3    3
 -0.6321121619276879   24   24    4    4
 -0.6357165343675305   24   24    5    5
 -0.641208718437983   24   24    6    6
 -0.6469210990623878   24   24    7    7
 -0.6481558088320291   24   24    8    8
 -0.6514742011208415   24   24    9    9
 -0.6514960444942055   24   24   10   10
 -0.6540702269570648   24   24   11   11
 -0.6542836071983921   24   24   12   12
 -0.6631611909315738   24   24   13   13
 -0.6655749572637882   24   24   14   14
 -0.6716244115609403   24   24   15   15
 -0.6790845716912706   24   24   16   16
 -0.6817350018105871   24   24   17   17
 -0.685148539531679   24   24   18   18
 -0.6917549636360254   24   24   19   19
 -0.6961269725904835   24   24   20   20
 -0.7202709797737579   24   24   21   21
 -0.7253409526726083   24   24   22   22
 -0.7284244557343521   24   24   23   23
 -0.7521012092847872   24   24   24   24
 -0.6844708217614239   25   25    1    1
 -0.690904848647611   25   25    2    2
 -0.6942086348084704   25   25    3    3
 -0.6959177431241466   25   25    4    4
 -0.6998859419420028   25   25    5    5
 -0.7059325086327557   25   25    6    6
 -0.7122214985801706   25   25    7    7
 -0.7135808403047178   25   25    8    8
 -0.7172341920538574   25   25    9    9
 -0.717258240303534   25   25   10   10
 -0.7200922614754726   25   25   11   11
 -0.7203271803789766   25   25   12   12
 -0.7301008699361445   25   25   13   13
 -0.7327582825276395   25   25   14   14
 -0.7394183704600851   25   25   15   15
 -0.7476315612732656   25   25   16   16
 -0.7505495265617647   25   25   17   17
 -0.754307627750147   25   25   18   18
 -0.7615809061803501   25   25   19   19
 -0.7663942269606789   25   25   20   20
 -0.7929753370879028   25   25   21   21
 -0.7985570744914496   25   25   22   22
 -0.8019518272282125   25   25   23   23
 -0.8280185190081601   25   25   24   24
 -0.9115989435417264   25   25   25   25
 -0.6848506094297917   26   26    1    1
 -0.691288206320706   26   26    2    2
 -0.6945938256309165   26   26    3    3
 -0.6963038822678966   26   26    4    4
 -0.700274282893235   26   26    5    5
 -0.7063242046013124   26   26    6    6
 -0.7126166840777949   26   26    7    7
 -0.7139767800510372   26   26    8    8
 -0.7176321589106078   26   26    9    9
 -0.7176562205037732   26   26   10   10
 -0.7204918141697593   26   26   11   11
 -0.7207268634211172   26   26   12   12
 -0.7305059760389186   26   26   13   13
 -0.7331648631308597   26   26   14   14
 -0.7398286465009872   26   26   15   15
 -0.7480463945114794   26   26   16   16
 -0.7509659788715269   26   26   17   17
 -0.7547261652919491   26   26   18   18
 -0.7620034793966742   26   26   19   19
 -0.7668194709115588   26   26   20   20
 -0.793415329918526   26   26   21   21
 -0.7990001644227328   26   26   22   22
 -0.802396800782852   26   26   23   23
 -0.8284779560107342   26   26   24   24
 -0.9121047562458579   26   26   25   25
 -0.9126108496068432   26   26   26   26
 -0.6864754263968008   27   27    1    1
 -0.6929282965699625   27   27    2    2
 -0.6962417585049262   27   27    3    3
 -0.6979558722734909   27   27    4    4
 -0.701935692725888   27   27    5    5
 -0.7079999679518056   27   27    6    6
 -0.7143073764175848   27   27    7    7
 -0.7156706992361911   27   27    8    8
 -0.7193347505295891   27   27    9    9
 -0.7193588692091967   27   27   10   10
 -0.7222011903579894   27   27   11   11
 -0.7224367972667494   27   27   12   12
 -0.7322391109562663   27   27   13   13
 -0.7349043062923716   27   27   14   14
 -0.7415838995751066   27   27   15   15
 -0.7498211442995013   27   27   16   16
 -0.7527476554113682   27   27   17   17
 -0.7565167629229171   27   27   18   18
 -0.7638113425498874   27   27   19   19
 -0.7686387600672003   27   27   20   20
 -0.7952977180951389   27   27   21   21
 -0.8008958026917533   27   27   22   22
 -0.8043004976157588   27   27   23   23
 -0.8304435307232104   27   27   24   24
 -0.9142687366281952   27   27   25   25
 -0.9147760307022539   27   27   26   26
 -0.9169463487179387   27   27   27   27
 -0.6888343021825964   28   28    1    1
 -0.695309345792148   28   28    2    2
 -0.6986341934880945   28   28    3    3
 -0.7003541973166779   28   28    4    4
 -0.7043476932798595   28   28    5    5
 -0.7104328066471566   28   28    6    6
 -0.7167618887119153   28   28    7    7
 -0.7181298961981168   28   28    8    8
 -0.7218065379522096   28   28    9    9
 -0.7218307395087377   28   28   10   10
 -0.7246828274784179   28   28   11   11
 -0.7249192439827012   28   28   12   12
 -0.7347552405099684   28   28   13   13
 -0.7374295940249408   28   28   14   14
 -0.7441321398129627   28   28   15   15
 -0.7523976894647807   28   28   16   16
 -0.7553342566921809   28   28   17   17
 -0.7591163156599673   28   28   18   18
 -0.7664359610162964   28   28   19   19
 -0.7712799665684489   28   28   20   20
 -0.7980305304545851   28   28   21   21
 -0.8036478512622771   28   28   22   22
 -0.8070642454432487   28   28   23   23
 -0.8332971115809781   28   28   24   24
 -0.9174103587483959   28   28   25   25
 -0.9179193959929475   28   28   26   26
 -0.9200971716836166   28   28   27   27
 -0.9232588215481365   28   28   28   28
 -0.6893640358343297   29   29    1    1
 -0.6958440589411066   29   29    2    2
 -0.6991714635418208   29   29    3    3
 -0.7008927901034711   29   29    4    4
 -0.704889357181423   29   29    5    5
 -0.7109791501782262   29   29    6    6
 -0.7173130994915288   29   29    7    7
 -0.7186821590153525   29   29    8    8
 -0.7223616282140952   29   29    9    9
 -0.7223858483823256   29   29   10   10
 -0.7252401296907673   29   29   11   11
 -0.7254767280062319   29   29   12   12
 -0.7353202887014598   29   29   13   13
 -0.7379966988722186   29   29   14   14
 -0.7447043991132707   29   29   15   15
 -0.7529763052136377   29   29   16   16
 -0.7559151307468105   29   29   17   17
 -0.7597000982281564   29   29   18   18
 -0.7670253726050665   29   29   19   19
 -0.7718731033386481   29   29   20   20
 -0.7986442391879521   29   29   21   21
 -0.80426587987904   29   29   22   22
 -0.807684901366694   29   29   23   23
 -0.8339379413429365   29   29   24   24
 -0.9181158740485745   29   29   25   25
 -0.9186253027576012   29   29   26   26
 -0.920804753221239   29   29   27   27
 -0.9239688344866385   29   29   28   28
 -0.9246793934457808   29   29   29   29
 -0.6925853786698257   30   30    1    1
 -0.6990956824047232   30   30    2    2
 -0.7024386357001968   30   30    3    3
 -0.7041680058827769   30   30    4    4
 -0.7081832485980611   30   30    5    5
 -0.7143014987089872   30   30    6    6
 -0.7206650460592923   30   30    7    7
 -0.7220405030884385   30   30    8    8
 -0.725737166151563   30   30    9    9
 -0.7257614994986964   30   30   10   10
 -0.728629118634709   30   30   11   11
 -0.7288668225551207   30   30   12   12
 -0.7387563814197816   30   30   13   13
 -0.7414452982405544   30   30   14   14
 -0.7481843430267103   30   30   15   15
 -0.756494903080674   30   30   16   16
 -0.7594474615097973   30   30   17   17
 -0.7632501158405357   30   30   18   18
 -0.7706096206369422   30   30   19   19
 -0.7754800044273343   30   30   20   20
 -0.8023762396467583   30   30   21   21
 -0.8080241498138017   30   30   22   22
 -0.8114591481145781   30   30   23   23
 -0.8378348664404897   30   30   24   24
 -0.9224061558725197   30   30   25   25
 -0.9229179651010349   30   30   26   26
 -0.9251075999618438   30   30   27   27
 -0.9282864667251594   30   30   28   28
 -0.9290003460693131   30   30   29   29
 -0.9333414901578088   30   30   30   30
 -0.7241713181032701   31   31    1    1
 -0.7309785297224471   31   31    2    2
 -0.7344739412181249   31   31    3    3
 -0.7362821807842168   31   31    4    4
 -0.7404805420248431   31   31    5    5
 -0.7468778200843716   31   31    6    6
 -0.7535315823704506   31   31    7    7
 -0.7549697682757094   31   31    8    8
 -0.7588350207708574   31   31    9    9
 -0.7588604638607784   31   31   10   10
 -0.761858863182365   31   31   11   11
 -0.7621074077902419   31   31   12   12
 -0.7724479883151099   31   31   13   13
 -0.7752595354518815   31   31   14   14
 -0.7823059200505867   31   31   15   15
 -0.7909954901942907   31   31   16   16
 -0.7940827025369792   31   31   17   17
 -0.7980587801207581   31   31   18   18
 -0.8057539213309821   31   31   19   19
 -0.8108464230755773   31   31   20   20
 -0.83896928375201   31   31   21   21
 -0.8448747716184332   31   31   22   22
 -0.8484664259093931   31   31   23   23
 -0.8760450310810478   31   31   24   24
 -0.9644732653867031   31   31   25   25
 -0.9650084161060889   31   31   26   26
 -0.9672979111086577   31   31   27   27
 -0.9706217527676978   31   31   28   28
 -0.9713681891805132   31   31   29   29
 -0.9759073148009239   31   31   30   30
 -1.020414389722372   31   31   31   31
 -0.7433761833587568   32   32    1    1
 -0.7503639207439283   32   32    2    2
 -0.7539520297893555   32   32    3    3
 -0.7558082234739665   32   32    4    4
 -0.7601179243381107   32   32    5    5
 -0.7666848568151283   32   32    6    6
 -0.7735150754243891   32   32    7    7
 -0.7749914017058714   32   32    8    8
 -0.7789591598533314   32   32    9    9
 -0.7789852776884425   32   32   10   10
 -0.7820631939054289   32   32   11   11
 -0.7823183298620446   32   32   12   12
 -0.7929331403248833   32   32   13   13
 -0.7958192490779069   32   32   14   14
 -0.8030525022578077   32   32   15   15
 -0.8119725179046214   32   32   16   16
 -0.8151416024446398   32   32   17   17
 -0.8192231247378857   32   32   18   18
 -0.8271223394130067   32   32   19   19
 -0.832349893192077   32   32   20   20
 -0.8612185659938839   32   32   21   21
 -0.8672806661092423   32   32   22   22
 -0.870967570287871   32   32   23   23
 -0.8992775540477347   32   32   24   24
 -0.9900508858215812   32   32   25   25
 -0.9906002286212114   32   32   26   26
 -0.9929504405314074   32   32   27   27
 -0.9963624297455862   32   32   28   28
 -0.9971286614891079   32   32   29   29
 -1.001788163729993   32   32   30   30
 -1.047475556561602   32   32   31   31
 -1.075254379637432   32   32   32   32
 -0.7571650656281937   33   33    1    1
 -0.7642824185300994   33   33    2    2
 -0.7679370833978745   33   33    3    3
 -0.7698277076127599   33   33    4    4
 -0.7742173491034166   33   33    5    5
 -0.7809060915883738   33   33    6    6
 -0.7878630038991358   33   33    7    7
 -0.7893667145517378   33   33    8    8
 -0.7934080706314341   33   33    9    9
 -0.7934346729261786   33   33   10   10
 -0.7965696814004923   33   33   11   11
 -0.7968295498730903   33   33   12   12
 -0.8076412544187108   33   33   13   13
 -0.8105808975930722   33   33   14   14
 -0.8179483203613395   33   33   15   15
 -0.8270337933477194   33   33   16   16
 -0.8302616612259754   33   33   17   17
 -0.8344188916622068   33   33   18   18
 -0.8424646288431796   33   33   19   19
 -0.8477891484993257   33   33   20   20
 -0.8771933062136846   33   33   21   21
 -0.8833678522032415   33   33   22   22
 -0.8871231447548042   33   33   23   23
 -0.9159582503061016   33   33   24   24
 -1.008415336298948   33   33   25   25
 -1.008974868856279   33   33   26   26
 -1.011368674839118   33   33   27   27
 -1.0148439530295   33   33   28   28
 -1.015624397602998   33   33   29   29
 -1.020370328934931   33   33   30   30
 -1.066905177059102   33   33   31   31
 -1.095199269428664   33   33   32   32
 -1.115514116912064   33   33   33   33
 -0.7646633253904219   34   34    1    1
 -0.7718511619468181   34   34    2    2
 -0.7755420192219908   34   34    3    3
 -0.7774513664236059   34   34    4    4
 -0.781884478847688   34   34    5    5
 -0.7886394604275422   34   34    6    6
 -0.7956652675381533   34   34    7    7
 -0.7971838695448236   34   34    8    8
 -0.8012652474626274   34   34    9    9
 -0.8012921132017983   34   34   10   10
 -0.8044581678891033   34   34   11   11
 -0.8047206098577592   34   34   12   12
 -0.8156393834862464   34   34   13   13
 -0.8186081381570703   34   34   14   14
 -0.826048521039588   34   34   15   15
 -0.8352239681143235   34   34   16   16
 -0.8384838017988853   34   34   17   17
 -0.842682201585259   34   34   18   18
 -0.8508076162765927   34   34   19   19
 -0.8561848650314562   34   34   20   20
 -0.8858802142212814   34   34   21   21
 -0.8921159071810899   34   34   22   22
 -0.8959083886631949   34   34   23   23
 -0.9250290503257156   34   34   24   24
 -1.018401745449389   34   34   25   25
 -1.018966819097628   34   34   26   26
 -1.021384331112209   34   34   27   27
 -1.024894025230901   34   34   28   28
 -1.025682198602792   34   34   29   29
 -1.030475129231913   34   34   30   30
 -1.077470815283071   34   34   31   31
 -1.10604510607165   34   34   32   32
 -1.126561132941653   34   34   33   33
 -1.137717548360553   34   34   34   34
 -0.256966240012604    1    1  0  0
 -0.2618199117422128    2    2  0  0
 -0.2643298525392495    3    3  0  0
 -0.2656329894994212    4    4  0  0
 -0.2686709628166782    5    5  0  0
 -0.2733333064255166    6    6  0  0
 -0.2782251266488909    7    7  0  0
 -0.2792881777987053    8    8  0  0
 -0.2821552667955692    9    9  0  0
 -0.2821741879628308   10   10  0  0
 -0.2844084389908716   11   11  0  0
 -0.2845940369219924   12   12  0  0
 -0.2923694043624767   13   13  0  0
 -0.2945016031538868   14   14  0  0
 -0.2998794209050232   15   15  0  0
 -0.3065783233799437   16   16  0  0
 -0.3089761104995754   17   17  0  0
 -0.3120780258210176   18   18  0  0
 -0.3181253558747323   19   19  0  0
 -0.3221592758964028   20   20  0  0
 -0.3448939304309817   21   21  0  0
 -0.3497664218119805   22   22  0  0
 -0.3527465327548567   23   23  0  0
 -0.3760506046423936   24   24  0  0
 -0.4557994717708632   25   25  0  0
 -0.4563054248034216   26   26  0  0
 -0.4584731743589693   27   27  0  0
 -0.4616294107740683   28   28  0  0
 -0.4623396967228904   29   29  0  0
 -0.4666707450789044   30   30  0  0
 -0.5102071948611859   31   31  0  0
 -0.537627189818716   32   32  0  0
 -0.5577570584560322   33   33  0  0
 -0.5688587741802765   34   34  0  0
 -4400.569756811086  0  0  0  0
