 &FCI NORB=  34,NELEC=52,MS2=0,
  ORBSYM=1,1,1,1,1,1,1,1,1,1,1,1,1,1,1,1,1,1,1,1,1,1,1,1,1,1,1,1,1,1,1,1,1,1,
  ISYM=1,
 &END
 -0.6860387418103977    1    1    1    1
 -0.6849680440182909    2    2    1    1
 -0.6838990172597458    2    2    2    2
 -0.6790336472278353    3    3    1    1
 -0.6779738822575153    3    3    2    2
 -0.672100081186039    3    3    3    3
 -0.6752980979497238    4    4    1    1
 -0.6742441630355227    4    4    2    2
 -0.6684026753456318    4    4    3    3
 -0.664725609943102    4    4    4    4
 -0.6750970750900948    5    5    1    1
 -0.6740434539114289    5    5    2    2
 -0.6682037051166475    5    5    3    3
 -0.6645277343036101    5    5    4    4
 -0.6643299175677743    5    5    5    5
 -0.6749182460424302    6    6    1    1
 -0.6738649039615104    6    6    2    2
 -0.6680267020801346    6    6    3    3
 -0.664351705009073    6    6    4    4
 -0.6641539406736693    6    6    5    5
 -0.6639780103947572    6    6    6    6
 -0.6274349167872226    7    7    1    1
 -0.6264556817394732    7    7    2    2
 -0.6210282218462082    7    7    3    3
 -0.6176117762322458    7    7    4    4
 -0.6174279254472727    7    7    5    5
 -0.6172643726013438    7    7    6    6
 -0.5738372351463934    7    7    7    7
 -0.6231628277394766    8    8    1    1
 -0.6221902601232179    8    8    2    2
 -0.6167997548069883    8    8    3    3
 -0.6134065711433878    8    8    4    4
 -0.6132239721646244    8    8    5    5
 -0.6130615329199681    8    8    6    6
 -0.569930082863555    8    8    7    7
 -0.5660495336626119    8    8    8    8
 -0.620005959923464    9    9    1    1
 -0.6190383192175889    9    9    2    2
 -0.6136751215519239    9    9    3    3
 -0.6102991273480034    9    9    4    4
 -0.6101174533936695    9    9    5    5
 -0.6099558370466585    9    9    6    6
 -0.5670428857204005    9    9    7    7
 -0.5631819949142391    9    9    8    8
 -0.5603289827717275    9    9    9    9
 -0.6193034560845641   10   10    1    1
 -0.6183369117734894   10   10    2    2
 -0.6129797909315848   10   10    3    3
 -0.6096076219310359   10   10    4    4
 -0.6094261538241594   10   10    5    5
 -0.6092647205981367   10   10    6    6
 -0.5664003922126146   10   10    7    7
 -0.5625438760266798   10   10    8    8
 -0.5596940965175816   10   10    9    9
 -0.559059929627538   10   10   10   10
 -0.6181926172297216   11   11    1    1
 -0.6172278066001969   11   11    2    2
 -0.6118802947761702   11   11    3    3
 -0.6085141744038247   11   11    4    4
 -0.6083330317946053   11   11    5    5
 -0.6081718881298602   11   11    6    6
 -0.5653844450918838   11   11    7    7
 -0.5615348463031984   11   11    8    8
 -0.5586901784171265   11   11    9    9
 -0.5580571490263412   11   11   10   10
 -0.5570561671033912   11   11   11   11
 -0.617569915930125   12   12    1    1
 -0.6166060771479113   12   12    2    2
 -0.6112639518368737   12   12    3    3
 -0.607901222135125   12   12    4    4
 -0.6077202619896476   12   12    5    5
 -0.607559280643841   12   12    6    6
 -0.5648149371118173   12   12    7    7
 -0.5609692159983124   12   12    8    8
 -0.5581274135272265   12   12    9    9
 -0.5574950217827238   12   12   10   10
 -0.5564950481421876   12   12   11   11
 -0.5559344943923706   12   12   12   12
 -0.6175031909611679   13   13    1    1
 -0.616539456316334   13   13    2    2
 -0.6111979081920025   13   13    3    3
 -0.6078355418143555   13   13    4    4
 -0.6076546012206078   13   13    5    5
 -0.6074936372679336   13   13    6    6
 -0.5647539120227171   13   13    7    7
 -0.5609086064178296   13   13    8    8
 -0.5580671109875771   13   13    9    9
 -0.5574347875694589   13   13   10   10
 -0.5564349219704714   13   13   11   11
 -0.5558744287853461   13   13   12   12
 -0.5558143696680738   13   13   13   13
 -0.613415593631225   14   14    1    1
 -0.6124582384824303   14   14    2    2
 -0.6071520490382974   14   14    3    3
 -0.6038119400352338   14   14    4    4
 -0.6036321971879894   14   14    5    5
 -0.6034722987453124   14   14    6    6
 -0.5610154915308884   14   14    7    7
 -0.5571956401441385   14   14    8    8
 -0.5543729541537459   14   14    9    9
 -0.5537448164362903   14   14   10   10
 -0.5527515695042385   14   14   11   11
 -0.552194786535482   14   14   12   12
 -0.5521351249829366   14   14   13   13
 -0.5484802352662779   14   14   14   14
 -0.6127592364175044   15   15    1    1
 -0.6118029056426654   15   15    2    2
 -0.6065023938431099   15   15    3    3
 -0.6031658587704477   15   15    4    4
 -0.602986308248791   15   15    5    5
 -0.6028265808981065   15   15    6    6
 -0.5604152026424114   15   15    7    7
 -0.556599438512391   15   15    8    8
 -0.5537797728076435   15   15    9    9
 -0.5531523072001348   15   15   10   10
 -0.5521601230463945   15   15   11   11
 -0.5516039358377097   15   15   12   12
 -0.5515443381232714   15   15   13   13
 -0.5478933591536752   15   15   14   14
 -0.5473071110009321   15   15   15   15
 -0.6113219064321704   16   16    1    1
 -0.6103678188922216   16   16    2    2
 -0.6050797403357646   16   16    3    3
 -0.6017510316680296   16   16    4    4
 -0.6015719023123598   16   16    5    5
 -0.6014125496290766   16   16    6    6
 -0.5591006544036866   16   16    7    7
 -0.5552938407910555   16   16    8    8
 -0.5524807890870854   16   16    9    9
 -0.5518547953058321   16   16   10   10
 -0.5508649384871207   16   16   11   11
 -0.5503100559092028   16   16   12   12
 -0.5502505979912407   16   16   13   13
 -0.5466081830076881   16   16   14   14
 -0.5460233099987188   16   16   15   15
 -0.5447425203679643   16   16   16   16
 -0.6097848317393679   17   17    1    1
 -0.608833143105457   17   17    2    2
 -0.603558360607324   17   17    3    3
 -0.6002380214643827   17   17    4    4
 -0.6000593425018633   17   17    5    5
 -0.5999003904863366   17   17    6    6
 -0.5576948819987212   17   17    7    7
 -0.5538976400320635   17   17    8    8
 -0.5510916613129452   17   17    9    9
 -0.5504672414965521   17   17   10   10
 -0.5494798735202158   17   17   11   11
 -0.5489263861089998   17   17   12   12
 -0.5488670776888064   17   17   13   13
 -0.5452338209962181   17   17   14   14
 -0.5446504185602662   17   17   15   15
 -0.5433728492775928   17   17   16   16
 -0.5420066220140304   17   17   17   17
 -0.6095030403046964   18   18    1    1
 -0.6085517914614977   18   18    2    2
 -0.6032794465256826   18   18    3    3
 -0.5999606417651692   18   18    4    4
 -0.5997820453730888   18   18    5    5
 -0.5996231668118596   18   18    6    6
 -0.5574371621724358   18   18    7    7
 -0.5536416749727153   18   18    8    8
 -0.5508369929417528   18   18    9    9
 -0.5502128616798575   18   18   10   10
 -0.5492259499822348   18   18   11   11
 -0.5486727183465048   18   18   12   12
 -0.5486134373336918   18   18   13   13
 -0.5449818596277929   18   18   14   14
 -0.5443987267915439   18   18   15   15
 -0.543121747894302   18   18   16   16
 -0.5417561519864583   18   18   17   17
 -0.5415057977051376   18   18   18   18
 -0.6092988188169853   19   19    1    1
 -0.6083478887014075   19   19    2    2
 -0.6030773103295883   19   19    3    3
 -0.5997596175754158   19   19    4    4
 -0.5995810810242526   19   19    5    5
 -0.5994222556972387   19   19    6    6
 -0.5572503859973613   19   19    7    7
 -0.5534561705222941   19   19    8    8
 -0.5506524282345306   19   19    9    9
 -0.5500285060954886   19   19   10   10
 -0.5490419250747646   19   19   11   11
 -0.5484888788060963   19   19   12   12
 -0.5484296176561154   19   19   13   13
 -0.5447992567549784   19   19   14   14
 -0.5442163193045561   19   19   15   15
 -0.5429397682747946   19   19   16   16
 -0.5415746299266504   19   19   17   17
 -0.5413243595296098   19   19   18   18
 -0.5411429821471735   19   19   19   19
 -0.60864821041452   20   20    1    1
 -0.6076982957007521   20   20    2    2
 -0.6024333452449384   20   20    3    3
 -0.5991191951183175   20   20    4    4
 -0.5989408492082267   20   20    5    5
 -0.5987821934746687   20   20    6    6
 -0.556655354836607   20   20    7    7
 -0.5528651908193674   20   20    8    8
 -0.5500644423635865   20   20    9    9
 -0.5494411864477072   20   20   10   10
 -0.5484556588967783   20   20   11   11
 -0.5479032031701203   20   20   12   12
 -0.5478440052991101   20   20   13   13
 -0.5442175208921225   20   20   14   14
 -0.5436352059014712   20   20   15   15
 -0.5423600179710635   20   20   16   16
 -0.5409963373156841   20   20   17   17
 -0.5407463341570136   20   20   18   18
 -0.5405651504490854   20   20   19   19
 -0.5399879357588535   20   20   20   20
 -0.6084813809619802   21   21    1    1
 -0.6075317266182405   21   21    2    2
 -0.6022682192765068   21   21    3    3
 -0.598954977552871   21   21    4    4
 -0.5987766805270948   21   21    5    5
 -0.5986180682808069   21   21    6    6
 -0.556502776538484   21   21    7    7
 -0.5527136513988377   21   21    8    8
 -0.549913670623506   21   21    9    9
 -0.5492905855410268   21   21   10   10
 -0.548305328121545   21   21   11   11
 -0.547753023822074   21   21   12   12
 -0.5476938421771009   21   21   13   13
 -0.5440683517834002   21   21   14   14
 -0.5434861964043102   21   21   15   15
 -0.5422113580007731   21   21   16   16
 -0.5408480511279717   21   21   17   17
 -0.5405981164947472   21   21   18   18
 -0.5404169824489692   21   21   19   19
 -0.5398399259723148   21   21   20   20
 -0.5396919567550099   21   21   21   21
 -0.6083296081154437   22   22    1    1
 -0.6073801906429501   22   22    2    2
 -0.602117996172106   22   22    3    3
 -0.5988055808667362   22   22    4    4
 -0.5986273283133924   22   22    5    5
 -0.5984687556295839   22   22    6    6
 -0.5563639686585005   22   22    7    7
 -0.5525757886362009   22   22    8    8
 -0.5497765062570171   22   22    9    9
 -0.5491535765899699   22   22   10   10
 -0.5481685649221704   22   22   11   11
 -0.547616398383358   22   22   12   12
 -0.5475572314999979   22   22   13   13
 -0.5439326454084079   22   22   14   14
 -0.5433506352356986   22   22   15   15
 -0.5420761148137127   22   22   16   16
 -0.5407131479890561   22   22   17   17
 -0.5404632756967543   22   22   18   18
 -0.5402821868310436   22   22   19   19
 -0.5397052742889561   22   22   20   20
 -0.5395573419794516   22   22   21   21
 -0.5394227607807097   22   22   22   22
 -0.6064652151166205   23   23    1    1
 -0.6055187073944746   23   23    2    2
 -0.6002726403624384   23   23    3    3
 -0.5969703768626394   23   23    4    4
 -0.5967926706131547   23   23    5    5
 -0.5966345839188453   23   23    6    6
 -0.5546588386202342   23   23    7    7
 -0.5508822685150219   23   23    8    8
 -0.5480915653047621   23   23    9    9
 -0.5474705447766002   23   23   10   10
 -0.5464885519473263   23   23   11   11
 -0.5459380776743766   23   23   12   12
 -0.545879092124165   23   23   13   13
 -0.5422656145711742   23   23   14   14
 -0.5416853881283322   23   23   15   15
 -0.5404147738238851   23   23   16   16
 -0.5390559841850364   23   23   17   17
 -0.538806877694935   23   23   18   18
 -0.5386263438257407   23   23   19   19
 -0.5380511993904329   23   23   20   20
 -0.5379037204600808   23   23   21   21
 -0.5377695517223492   23   23   22   22
 -0.536121409376759   23   23   23   23
 -0.6034232387262748   24   24    1    1
 -0.6024814786039453   24   24    2    2
 -0.5972617253845662   24   24    3    3
 -0.5939760257491913   24   24    4    4
 -0.5937992108586861   24   24    5    5
 -0.5936419171133864   24   24    6    6
 -0.5518767184759571   24   24    7    7
 -0.5481190913155504   24   24    8    8
 -0.5453423860281169   24   24    9    9
 -0.5447244804845205   24   24   10   10
 -0.5437474132452519   24   24   11   11
 -0.5431997001030316   24   24   12   12
 -0.5431410104191726   24   24   13   13
 -0.5395456577530331   24   24   14   14
 -0.5389683416751984   24   24   15   15
 -0.5377041006607917   24   24   16   16
 -0.5363521265917363   24   24   17   17
 -0.5361042695979664   24   24   18   18
 -0.5359246412708446   24   24   19   19
 -0.5353523817096394   24   24   20   20
 -0.5352056425206824   24   24   21   21
 -0.5350721467615854   24   24   22   22
 -0.5334322713536171   24   24   23   23
 -0.5307566218112205   24   24   24   24
 -0.6026524779933551   25   25    1    1
 -0.6017119207940745   25   25    2    2
 -0.5964988348366749   25   25    3    3
 -0.5932173320702577   25   25    4    4
 -0.5930407430278239   25   25    5    5
 -0.5928836501959703   25   25    6    6
 -0.5511717988163966   25   25    7    7
 -0.5474189713244121   25   25    8    8
 -0.5446458127605138   25   25    9    9
 -0.5440286964760959   25   25   10   10
 -0.5430528772581381   25   25   11   11
 -0.5425058637173847   25   25   12   12
 -0.5424472489986594   25   25   13   13
 -0.5388564887255174   25   25   14   14
 -0.5382799100613829   25   25   15   15
 -0.5370172838792669   25   25   16   16
 -0.5356670367051295   25   25   17   17
 -0.5354194963024783   25   25   18   18
 -0.5352400974170687   25   25   19   19
 -0.534668568810806   25   25   20   20
 -0.5345220170538164   25   25   21   21
 -0.5343886918106734   25   25   22   22
 -0.5327509110379299   25   25   23   23
 -0.530078679139187   25   25   24   24
 -0.5294016024125749   25   25   25   25
 -0.6021765231872008   26   26    1    1
 -0.6012367088085936   26   26    2    2
 -0.596027739972432   26   26    3    3
 -0.5927488288273391   26   26    4    4
 -0.5925723792490352   26   26    5    5
 -0.5924154104838554   26   26    6    6
 -0.5507365017318531   26   26    7    7
 -0.546986638097725   26   26    8    8
 -0.544215669681872   26   26    9    9
 -0.5435990407752916   26   26   10   10
 -0.5426239922267723   26   26   11   11
 -0.54207741069905   26   26   12   12
 -0.5420188422722725   26   26   13   13
 -0.5384309178617083   26   26   14   14
 -0.5378547945601523   26   26   15   15
 -0.5365931655580393   26   26   16   16
 -0.5352439847640388   26   26   17   17
 -0.5349966398605328   26   26   18   18
 -0.5348173826583733   26   26   19   19
 -0.5342463054263221   26   26   20   20
 -0.5340998694110172   26   26   21   21
 -0.5339666494636998   26   26   22   22
 -0.5323301621555295   26   26   23   23
 -0.5296600406963214   26   26   24   24
 -0.5289834987023023   26   26   25   25
 -0.5285657251963807   26   26   26   26
 -0.6020771390237182   27   27    1    1
 -0.6011374797535588   27   27    2    2
 -0.5959293706138324   27   27    3    3
 -0.5926510006254083   27   27    4    4
 -0.5924745801686212   27   27    5    5
 -0.592317637309814   27   27    6    6
 -0.5506456073106719   27   27    7    7
 -0.5468963625599543   27   27    8    8
 -0.5441258514691008   27   27    9    9
 -0.543509324331928   27   27   10   10
 -0.5425344367069594   27   27   11   11
 -0.5419879453879149   27   27   12   12
 -0.541929386627363   27   27   13   13
 -0.5383420543735044   27   27   14   14
 -0.5377660261562471   27   27   15   15
 -0.536504605375375   27   27   16   16
 -0.5351556472523016   27   27   17   17
 -0.5349083431709888   27   27   18   18
 -0.5347291155537206   27   27   19   19
 -0.5341581325731569   27   27   20   20
 -0.534011720725883   27   27   21   21
 -0.5338785227653958   27   27   22   22
 -0.532242305545673   27   27   23   23
 -0.5295726247675234   27   27   24   24
 -0.5288961944310624   27   27   25   25
 -0.5284784898751392   27   27   26   26
 -0.5283912689513529   27   27   27   27
 -0.6020639615321572   28   28    1    1
 -0.6011243228280538   28   28    2    2
 -0.5959163276767349   28   28    3    3
 -0.5926380294410648   28   28    4    4
 -0.5924616128455422   28   28    5    5
 -0.5923046734216988   28   28    6    6
 -0.550633555486457   28   28    7    7
 -0.5468843927943957   28   28    8    8
 -0.5441139423409325   28   28    9    9
 -0.5434974286975144   28   28   10   10
 -0.5425225624096347   28   28   11   11
 -0.5419760830514907   28   28   12   12
 -0.5419175255725978   28   28   13   13
 -0.5383302718336626   28   28   14   14
 -0.5377542562237715   28   28   15   15
 -0.5364928630512583   28   28   16   16
 -0.5351439344524486   28   28   17   17
 -0.5348966357838101   28   28   18   18
 -0.5347174120892459   28   28   19   19
 -0.5341464416056247   28   28   20   20
 -0.5340000329628254   28   28   21   21
 -0.5338668379176043   28   28   22   22
 -0.5322306565093035   28   28   23   23
 -0.5295610341617   28   28   24   24
 -0.5288846186300777   28   28   25   25
 -0.5284669232163358   28   28   26   26
 -0.5283797042015291   28   28   27   27
 -0.5283681397048197   28   28   28   28
 -0.5928157364737122   29   29    1    1
 -0.5918905314357379   29   29    2    2
 -0.586762535610637   29   29    3    3
 -0.5835345948815265   29   29    4    4
 -0.5833608881980459   29   29    5    5
 -0.5832063594999809   29   29    6    6
 -0.5421753461079861   29   29    7    7
 -0.538483773809259   29   29    8    8
 -0.5357558798795938   29   29    9    9
 -0.5351488364208906   29   29   10   10
 -0.5341889449254056   29   29   11   11
 -0.533650859964563   29   29   12   12
 -0.5335932019793753   29   29   13   13
 -0.5300610515717126   29   29   14   14
 -0.529493884061588   29   29   15   15
 -0.5282518669831311   29   29   16   16
 -0.526923659098509   29   29   17   17
 -0.5266801591520833   29   29   18   18
 -0.5265036884890393   29   29   19   19
 -0.5259414886076657   29   29   20   20
 -0.5257973289287067   29   29   21   21
 -0.5256661798749975   29   29   22   22
 -0.5240551316333819   29   29   23   23
 -0.5214265170023487   29   29   24   24
 -0.5207604918004409   29   29   25   25
 -0.520349212550826   29   29   26   26
 -0.5202633332957953   29   29   27   27
 -0.5202519464397938   29   29   28   28
 -0.5122604249484143   29   29   29   29
 -0.5916293883435896   30   30    1    1
 -0.5907060348341751   30   30    2    2
 -0.5855883011999778   30   30    3    3
 -0.5823668202545953   30   30    4    4
 -0.5821934611944763   30   30    5    5
 -0.5820392417406177   30   30    6    6
 -0.5410903399779535   30   30    7    7
 -0.5374061552865795   30   30    8    8
 -0.5346837204425349   30   30    9    9
 -0.5340778918046062   30   30   10   10
 -0.5331199212525286   30   30   11   11
 -0.5325829131121006   30   30   12   12
 -0.5325253705125863   30   30   13   13
 -0.5290002886757688   30   30   14   14
 -0.5284342561863153   30   30   15   15
 -0.5271947246434945   30   30   16   16
 -0.5258691747803171   30   30   17   17
 -0.5256261621281524   30   30   18   18
 -0.5254500446197704   30   30   19   19
 -0.5248889698178051   30   30   20   20
 -0.5247450986324793   30   30   21   21
 -0.524614212035424   30   30   22   22
 -0.5230063878378941   30   30   23   23
 -0.520383033613865   30   30   24   24
 -0.5197183412675214   30   30   25   25
 -0.5193078850736027   30   30   26   26
 -0.5192221776809018   30   30   27   27
 -0.5192108136123779   30   30   28   28
 -0.5112352848249615   30   30   29   29
 -0.5102121962210515   30   30   30   30
 -0.5883805776312717   31   31    1    1
 -0.5874622945271342   31   31    2    2
 -0.5823726638712222   31   31    3    3
 -0.5791688730237474   31   31    4    4
 -0.578996465929137   31   31    5    5
 -0.5788430933395885   31   31    6    6
 -0.5381190540217677   31   31    7    7
 -0.5344551002704507   31   31    8    8
 -0.5317476151156189   31   31    9    9
 -0.5311451132606518   31   31   10   10
 -0.5301924032061983   31   31   11   11
 -0.5296583439351699   31   31   12   12
 -0.5296011173189678   31   31   13   13
 -0.5260953927417098   31   31   14   14
 -0.52553246850288   31   31   15   15
 -0.524299743591768   31   31   16   16
 -0.5229814727121571   31   31   17   17
 -0.5227397945138297   31   31   18   18
 -0.5225646441184059   31   31   19   19
 -0.5220066503429462   31   31   20   20
 -0.521863569196549   31   31   21   21
 -0.521733401336235   31   31   22   22
 -0.5201344061735356   31   31   23   23
 -0.5175254575579383   31   31   24   24
 -0.5168644152324654   31   31   25   25
 -0.5164562129740442   31   31   26   26
 -0.5163709762258061   31   31   27   27
 -0.5163596745607195   31   31   28   28
 -0.5084279417440096   31   31   29   29
 -0.5074104712200691   31   31   30   30
 -0.5046241313138361   31   31   31   31
 -0.582867237383757   32   32    1    1
 -0.581957558926661   32   32    2    2
 -0.5769156199631792   32   32    3    3
 -0.5737418498024768   32   32    4    4
 -0.573571058225118   32   32    5    5
 -0.573419122792578   32   32    6    6
 -0.5330766825511853   32   32    7    7
 -0.5294470613805994   32   32    8    8
 -0.5267649463474902   32   32    9    9
 -0.5261680901542809   32   32   10   10
 -0.5252243073399286   32   32   11   11
 -0.5246952523987259   32   32   12   12
 -0.5246385620167544   32   32   13   13
 -0.5211656873552539   32   32   14   14
 -0.5206080379215081   32   32   15   15
 -0.5193868640916603   32   32   16   16
 -0.5180809458901868   32   32   17   17
 -0.5178415323045751   32   32   18   18
 -0.5176680231321303   32   32   19   19
 -0.5171152579615178   32   32   20   20
 -0.5169735175375595   32   32   21   21
 -0.516844569397492   32   32   22   22
 -0.5152605574016769   32   32   23   23
 -0.5126760555845513   32   32   24   24
 -0.5120212074663602   32   32   25   25
 -0.5116168302117308   32   32   26   26
 -0.5115323921628591   32   32   27   27
 -0.5115211963984896   32   32   28   28
 -0.5036637868062935   32   32   29   29
 -0.5026558503516332   32   32   30   30
 -0.4998956194648551   32   32   31   31
 -0.4952114154935964   32   32   32   32
 -0.577392484160613   33   33    1    1
 -0.5764913501279512   33   33    2    2
 -0.5714967690700451   33   33    3    3
 -0.568352809485924   33   33    4    4
 -0.5681836221190589   33   33    5    5
 -0.5680331137850856   33   33    6    6
 -0.528069601866603   33   33    7    7
 -0.5244740729882715   33   33    8    8
 -0.5218171505152868   33   33    9    9
 -0.521225900470713   33   33   10   10
 -0.5202909824160752   33   33   11   11
 -0.5197668967801599   33   33   12   12
 -0.5197107388793976   33   33   13   13
 -0.5162704842221231   33   33   14   14
 -0.5157180726759081   33   33   15   15
 -0.5145083690830752   33   33   16   16
 -0.5132147171052356   33   33   17   17
 -0.5129775522826618   33   33   18   18
 -0.5128056728465278   33   33   19   19
 -0.5122580996865574   33   33   20   20
 -0.5121176906015269   33   33   21   21
 -0.5119899536450707   33   33   22   22
 -0.5104208199512485   33   33   23   23
 -0.5078605938331948   33   33   24   24
 -0.5072118965699768   33   33   25   25
 -0.5068113175485233   33   33   26   26
 -0.5067276726090435   33   33   27   27
 -0.5067165820042079   33   33   28   28
 -0.4989329754596553   33   33   29   29
 -0.4979345063467839   33   33   30   30
 -0.4952002017464306   33   33   31   31
 -0.4905599955488409   33   33   32   32
 -0.4859522654440721   33   33   33   33
 -0.5770930360849686   34   34    1    1
 -0.5761923693996649   34   34    2    2
 -0.5712003786381818   34   34    3    3
 -0.5680580495786575   34   34    4    4
 -0.5678889499559747   34   34    5    5
 -0.5677385196788383   34   34    6    6
 -0.527795733691275   34   34    7    7
 -0.5242020695310219   34   34    8    8
 -0.5215465249947846   34   34    9    9
 -0.5209555815851133   34   34   10   10
 -0.5200211483989489   34   34   11   11
 -0.519497334565039   34   34   12   12
 -0.5194412057889637   34   34   13   13
 -0.5160027353212397   34   34   14   14
 -0.5154506102674524   34   34   15   15
 -0.5142415340527425   34   34   16   16
 -0.5129485529904516   34   34   17   17
 -0.5127115111666208   34   34   18   18
 -0.5125397208708338   34   34   19   19
 -0.5119924316940005   34   34   20   20
 -0.5118520954281208   34   34   21   21
 -0.5117244247187788   34   34   22   22
 -0.5101561048112075   34   34   23   23
 -0.5075972064811062   34   34   24   24
 -0.5069488456461453   34   34   25   25
 -0.5065484743735289   34   34   26   26
 -0.5064648728141015   34   34   27   27
 -0.5064537879610903   34   34   28   28
 -0.498674218161153   34   34   29   29
 -0.4976762668756914   34   34   30   30
 -0.4949433803441098   34   34   31   31
 -0.490305580656571   34   34   32   32
 -0.4857002402190577   34   34   33   33
 -0.4854483456997084   34   34   34   34
 -0.3430193709051989    1    1  0  0
 -0.3419495086298729    2    2  0  0
 -0.3360500405930195    3    3  0  0
 -0.332362804971551    4    4  0  0
 -0.3321649587838871    5    5  0  0
 -0.3319890051973786    6    6  0  0
 -0.2869186175731967    7    7  0  0
 -0.283024766831306    8    8  0  0
 -0.2801644913858637    9    9  0  0
 -0.279529964813769   10   10  0  0
 -0.2785280835516956   11   11  0  0
 -0.2779672471961853   12   12  0  0
 -0.2779071848340369   13   13  0  0
 -0.2742401176331389   14   14  0  0
 -0.2736535555004661   15   15  0  0
 -0.2723712601839822   16   16  0  0
 -0.2710033110070152   17   17  0  0
 -0.2707528988525688   18   18  0  0
 -0.2705714910735867   19   19  0  0
 -0.2699939678794268   20   20  0  0
 -0.269845978377505   21   21  0  0
 -0.2697113803903549   22   22  0  0
 -0.2680607046883795   23   23  0  0
 -0.2653783109056103   24   24  0  0
 -0.2647008012062875   25   25  0  0
 -0.2642828625981903   26   26  0  0
 -0.2641956344756765   27   27  0  0
 -0.2641840698524098   28   28  0  0
 -0.2561302124742071   29   29  0  0
 -0.2551060981105258   30   30  0  0
 -0.252312065656918   31   31  0  0
 -0.2476057077467982   32   32  0  0
 -0.2429761327220361   33   33  0  0
 -0.2427241728498542   34   34  0  0
 -1486.903321421686  0  0  0  0
