 &FCI NORB=  25,NELEC=40,MS2=0,
  ORBSYM=1,1,1,1,1,1,1,1,1,1,1,1,1,1,1,1,1,1,1,1,1,1,1,1,1,
  ISYM=1,
 &END
 -1.421679442751831    1    1    1    1
 -1.354383650259988    2    2    1    1
 -1.290273332320931    2    2    2    2
 -1.341696361218944    3    3    1    1
 -1.278186601426059    3    3    2    2
 -1.26621309387702    3    3    3    3
 -1.329571300403565    4    4    1    1
 -1.266635485448064    4    4    2    2
 -1.2547701838325    4    4    3    3
 -1.243430684652171    4    4    4    4
 -1.281006545983036    5    5    1    1
 -1.220369564039831    5    5    2    2
 -1.20893766186581    5    5    3    3
 -1.198012356337808    5    5    4    4
 -1.154253006342328    5    5    5    5
 -1.279339284668758    6    6    1    1
 -1.2187812232389    6    6    2    2
 -1.207364199964836    6    6    3    3
 -1.196453113988882    6    6    4    4
 -1.152750717856451    6    6    5    5
 -1.15125038463574    6    6    6    6
 -1.278899314030368    7    7    1    1
 -1.218362078795145    7    7    2    2
 -1.206948981887667    7    7    3    3
 -1.196041648284144    7    7    4    4
 -1.152354281605867    7    7    5    5
 -1.15085446435662    7    7    6    6
 -1.150458680236298    7    7    7    7
 -1.276677969837898    8    8    1    1
 -1.216245882861371    8    8    2    2
 -1.204852609575858    8    8    3    3
 -1.193964221124538    8    8    4    4
 -1.150352735852397    8    8    5    5
 -1.148855523663845    8    8    6    6
 -1.148460426988381    8    8    7    7
 -1.146465644543989    8    8    8    8
 -1.276222591356071    9    9    1    1
 -1.215812059910908    9    9    2    2
 -1.204422850493978    9    9    3    3
 -1.193538345823783    9    9    4    4
 -1.149942416339728    9    9    5    5
 -1.148445738192046    9    9    6    6
 -1.148050782443683    9    9    7    7
 -1.146056711518579    9    9    8    8
 -1.14564792435556    9    9    9    9
 -1.275952377745754   10   10    1    1
 -1.215554636975128   10   10    2    2
 -1.204167838986594   10   10    3    3
 -1.193285638884052   10   10    4    4
 -1.149698939932023   10   10    5    5
 -1.148202578674834   10   10    6    6
 -1.147807706550142   10   10    7    7
 -1.145814057828114   10   10    8    8
 -1.145405357217281   10   10    9    9
 -1.145162841437553   10   10   10   10
 -1.106403562616062   11   11    1    1
 -1.054031486096529   11   11    2    2
 -1.044157768173324   11   11    3    3
 -1.034721597064945   11   11    4    4
 -0.9969267076597476   11   11    5    5
 -0.9956291831950497   11   11    6    6
 -0.9952867817597316   11   11    7    7
 -0.9935580494910923   11   11    8    8
 -0.9932036571017242   11   11    9    9
 -0.9929933668688269   11   11   10   10
 -0.8610442034668994   11   11   11   11
 -1.098157734361198   12   12    1    1
 -1.046175977579347   12   12    2    2
 -1.036375846713327   12   12    3    3
 -1.027010001703825   12   12    4    4
 -0.9894967908628309   12   12    5    5
 -0.9882089366163552   12   12    6    6
 -0.9878690870378146   12   12    7    7
 -0.9861532387021883   12   12    8    8
 -0.9858014875360376   12   12    9    9
 -0.9855927645587083   12   12   10   10
 -0.8546269947181796   12   12   11   11
 -0.8482576122807677   12   12   12   12
 -1.039202739043103   13   13    1    1
 -0.9900116416827622   13   13    2    2
 -0.9807376343882881   13   13    3    3
 -0.9718745981569865   13   13    4    4
 -0.9363752976134817   13   13    5    5
 -0.9351565822882154   13   13    6    6
 -0.9348349776572672   13   13    7    7
 -0.9332112452603882   13   13    8    8
 -0.9328783779828673   13   13    9    9
 -0.9326808603740987   13   13   10   10
 -0.8087460352751017   13   13   11   11
 -0.8027185954384902   13   13   12   12
 -0.7596243571928768   13   13   13   13
 -1.03746119222344   14   14    1    1
 -0.9883525317119889   14   14    2    2
 -0.9790940662529067   14   14    3    3
 -0.9702458831315723   14   14    4    4
 -0.9348060740536297   14   14    5    5
 -0.9335894011111621   14   14    6    6
 -0.9332683354409973   14   14    7    7
 -0.9316473241743516   14   14    8    8
 -0.9313150147321084   14   14    9    9
 -0.9311178281330171   14   14   10   10
 -0.8073906990806022   14   14   11   11
 -0.8013733603227158   14   14   12   12
 -0.758351341511042   14   14   13   13
 -0.7570804592112018   14   14   14   14
 -0.9941933996007244   15   15    1    1
 -0.9471328381940068   15   15    2    2
 -0.9382605012633852   15   15    3    3
 -0.9297813356583218   15   15    4    4
 -0.8958195599962476   15   15    5    5
 -0.8946536289542568   15   15    6    6
 -0.8943459534744328   15   15    7    7
 -0.8927925472226542   15   15    8    8
 -0.892474096897399   15   15    9    9
 -0.8922851340554386   15   15   10   10
 -0.7737181014015894   15   15   11   11
 -0.7679517185035156   15   15   12   12
 -0.7267239526259345   15   15   13   13
 -0.7255060730525669   15   15   14   14
 -0.6952485110823853   15   15   15   15
 -0.9935328579053374   16   16    1    1
 -0.9465035635167172   16   16    2    2
 -0.9376371213631887   16   16    3    3
 -0.9291635893123477   16   16    4    4
 -0.8952243778403831   16   16    5    5
 -0.8940592214425084   16   16    6    6
 -0.8937517503821494   16   16    7    7
 -0.8921993762128607   16   16    8    8
 -0.8918811374658736   16   16    9    9
 -0.8916923001707495   16   16   10   10
 -0.7732040434057742   16   16   11   11
 -0.7674414916901819   16   16   12   12
 -0.7262411175236914   16   16   13   13
 -0.725024047109023   16   16   14   14
 -0.6947865882508617   16   16   15   15
 -0.6943249723206819   16   16   16   16
 -0.9883937720391595   17   17    1    1
 -0.9416077384346851   17   17    2    2
 -0.9327871582848055   17   17    3    3
 -0.9243574558954122   17   17    4    4
 -0.890593796264131   17   17    5    5
 -0.8894346666813017   17   17    6    6
 -0.8891287860265021   17   17    7    7
 -0.8875844415706635   17   17    8    8
 -0.8872678489254977   17   17    9    9
 -0.8870799883983452   17   17   10   10
 -0.7692046165730113   17   17   11   11
 -0.7634718718716905   17   17   12   12
 -0.7224846081814921   17   17   13   13
 -0.7212738331090627   17   17   14   14
 -0.6911927786377424   17   17   15   15
 -0.6907335504332263   17   17   16   16
 -0.6871607053098044   17   17   17   17
 -0.9828379081475793   18   18    1    1
 -0.9363148636898264   18   18    2    2
 -0.9275438649356859   18   18    3    3
 -0.919161546777605   18   18    4    4
 -0.8855876761784885   18   18    5    5
 -0.884435062183249   18   18    6    6
 -0.8841309009153306   18   18    7    7
 -0.8825952373798309   18   18    8    8
 -0.882280424334755   18   18    9    9
 -0.8820936197911072   18   18   10   10
 -0.7648808376547792   18   18   11   11
 -0.7591803173059247   18   18   12   12
 -0.7184234472754124   18   18   13   13
 -0.7172194780952257   18   18   14   14
 -0.6873075123505706   18   18   15   15
 -0.6868508655154151   18   18   16   16
 -0.6832981037249451   18   18   17   17
 -0.6794572142241561   18   18   18   18
 -0.971506379785543   19   19    1    1
 -0.9255197179737901   19   19    2    2
 -0.9168498435457689   19   19    3    3
 -0.9085641684609358   19   19    4    4
 -0.8753773843424724   19   19    5    5
 -0.8742380592914925   19   19    6    6
 -0.8739374048195629   19   19    7    7
 -0.8724194465585167   19   19    8    8
 -0.8721082631179966   19   19    9    9
 -0.871923612318081   19   19   10   10
 -0.7560622228724099   19   19   11   11
 -0.7504274260853715   19   19   12   12
 -0.7101404581871131   19   19   13   13
 -0.7089503700454977   19   19   14   14
 -0.6793832712269043   19   19   15   15
 -0.6789318892543688   19   19   16   16
 -0.6754200886647831   19   19   17   17
 -0.6716234823036172   19   19   18   18
 -0.6638800685878428   19   19   19   19
 -0.9709392130781191   20   20    1    1
 -0.9249793983402588   20   20    2    2
 -0.9163145853963774   20   20    3    3
 -0.9080337474996004   20   20    4    4
 -0.8748663378695296   20   20    5    5
 -0.8737276779580189   20   20    6    6
 -0.8734271990085672   20   20    7    7
 -0.8719101269335582   20   20    8    8
 -0.8715991251623416   20   20    9    9
 -0.871414582161807   20   20   10   10
 -0.7556208327482927   20   20   11   11
 -0.7499893255630596   20   20   12   12
 -0.7097258772498605   20   20   13   13
 -0.7085364838832737   20   20   14   14
 -0.6789866463760149   20   20   15   15
 -0.6785355279208708   20   20   16   16
 -0.6750257775251068   20   20   17   17
 -0.6712313876277483   20   20   18   18
 -0.6634924945271264   20   20   19   19
 -0.6631051467326586   20   20   20   20
 -0.941904782528669   21   21    1    1
 -0.8973193247341662   21   21    2    2
 -0.8889136195760808   21   21    3    3
 -0.8808804072871347   21   21    4    4
 -0.8487048175757964   21   21    5    5
 -0.8476002075220677   21   21    6    6
 -0.8473087139293426   21   21    7    7
 -0.8458370075406784   21   21    8    8
 -0.8455353057948449   21   21    9    9
 -0.8453562812663837   21   21   10   10
 -0.7330251642505752   21   21   11   11
 -0.7275620585492414   21   21   12   12
 -0.6885026261805882   21   21   13   13
 -0.6873487997770337   21   21   14   14
 -0.6586826043076035   21   21   15   15
 -0.6582449758498548   21   21   16   16
 -0.6548401790935556   21   21   17   17
 -0.6511592545382786   21   21   18   18
 -0.6436517810273008   21   21   19   19
 -0.6432760162675744   21   21   20   20
 -0.6240398451799565   21   21   21   21
 -0.9376936293553622   22   22    1    1
 -0.8933075082619329   22   22    2    2
 -0.8849393840914451   22   22    3    3
 -0.8769420874152549   22   22    4    4
 -0.8449103512432863   22   22    5    5
 -0.8438106797801872   22   22    6    6
 -0.8435204894234057   22   22    7    7
 -0.8420553628728989   22   22    8    8
 -0.8417550100025442   22   22    9    9
 -0.8415767858731522   22   22   10   10
 -0.7297478889847457   22   22   11   11
 -0.7243092082309619   22   22   12   12
 -0.6854244063086318   22   22   13   13
 -0.6842757385366194   22   22   14   14
 -0.655737706489073   22   22   15   15
 -0.6553020346202522   22   22   16   16
 -0.6519124603375308   22   22   17   17
 -0.6482479927929933   22   22   18   18
 -0.6407740843742473   22   22   19   19
 -0.6403999996176271   22   22   20   20
 -0.6212498313451774   22   22   21   21
 -0.6184722913568336   22   22   22   22
 -0.9324221425772015   23   23    1    1
 -0.8882855495205988   23   23    2    2
 -0.8799644689201448   23   23    3    3
 -0.8720121311115099   23   23    4    4
 -0.8401604696125751   23   23    5    5
 -0.8390669802364568   23   23    6    6
 -0.8387784212596709   23   23    7    7
 -0.8373215312962514   23   23    8    8
 -0.8370228669370853   23   23    9    9
 -0.8368456447406405   23   23   10   10
 -0.7256454228617559   23   23   11   11
 -0.7202373170556806   23   23   12   12
 -0.6815711160844371   23   23   13   13
 -0.6804289058448032   23   23   14   14
 -0.6520513077107483   23   23   15   15
 -0.651618085083795   23   23   16   16
 -0.6482475661678327   23   23   17   17
 -0.6446036993734819   23   23   18   18
 -0.6371718074601032   23   23   19   19
 -0.6367998257175024   23   23   20   20
 -0.6177573150591043   23   23   21   21
 -0.6149953897287531   23   23   22   22
 -0.611538034400645   23   23   23   23
 -0.9202555553454547   24   24    1    1
 -0.8766948727965659   24   24    2    2
 -0.8684823687178019   24   24    3    3
 -0.8606337959392184   24   24    4    4
 -0.8291977466403883   24   24    5    5
 -0.828118525516035   24   24    6    6
 -0.827833731762963   24   24    7    7
 -0.8263958518358968   24   24    8    8
 -0.8261010845591926   24   24    9    9
 -0.8259261748231816   24   24   10   10
 -0.7161769343591523   24   24   11   11
 -0.7108393955077251   24   24   12   12
 -0.6726777253552551   24   24   13   13
 -0.6715504190951417   24   24   14   14
 -0.6435431023040106   24   24   15   15
 -0.6431155325253124   24   24   16   16
 -0.6397889933804588   24   24   17   17
 -0.6361926731009214   24   24   18   18
 -0.6288577552480374   24   24   19   19
 -0.628490627260097   24   24   20   20
 -0.6096965902880879   24   24   21   21
 -0.6069707035757885   24   24   22   22
 -0.6035584610922491   24   24   23   23
 -0.5956830081927277   24   24   24   24
 -0.9125353093544415   25   25    1    1
 -0.8693400678864138   25   25    2    2
 -0.8611964604867538   25   25    3    3
 -0.853413731279749   25   25    4    4
 -0.822241406586723   25   25    5    5
 -0.8211712393088914   25   25    6    6
 -0.8208888347593591   25   25    7    7
 -0.8194630175540858   25   25    8    8
 -0.8191707231512186   25   25    9    9
 -0.818997280775204   25   25   10   10
 -0.7101687531814067   25   25   11   11
 -0.7048759922318137   25   25   12   12
 -0.6670344695419627   25   25   13   13
 -0.6659166205261818   25   25   14   14
 -0.6381442638761983   25   25   15   15
 -0.6377202810835833   25   25   16   16
 -0.6344216490785972   25   25   17   17
 -0.6308554991979879   25   25   18   18
 -0.6235821157415214   25   25   19   19
 -0.6232180676788917   25   25   20   20
 -0.6045816984196666   25   25   21   21
 -0.6018786798289888   25   25   22   22
 -0.5984950634713129   25   25   23   23
 -0.5906856796471931   25   25   24   24
 -0.5857302748971144   25   25   25   25
 -0.7108397213759154    1    1  0  0
 -0.6451366661604654    2    2  0  0
 -0.6331065469385102    3    3  0  0
 -0.6217153423260856    4    4  0  0
 -0.5771265031711641    5    5  0  0
 -0.5756251923178698    6    6  0  0
 -0.5752293401181491    7    7  0  0
 -0.5732328222719943    8    8  0  0
 -0.5728239621777799    9    9  0  0
 -0.5725814207187763   10   10  0  0
 -0.4305221017334497   11   11  0  0
 -0.4241288061403838   12   12  0  0
 -0.3798121785964384   13   13  0  0
 -0.3785402296056009   14   14  0  0
 -0.3476242555411926   15   15  0  0
 -0.347162486160341   16   16  0  0
 -0.3435803526549022   17   17  0  0
 -0.339728607112078   18   18  0  0
 -0.3319400342939214   19   19  0  0
 -0.3315525733663293   20   20  0  0
 -0.3120199225899782   21   21  0  0
 -0.3092361456784168   22   22  0  0
 -0.3057690172003225   23   23  0  0
 -0.2978415040963638   24   24  0  0
 -0.2928651374485572   25   25  0  0
 -4597.217468837509  0  0  0  0
