 &FCI NORB=  25,NELEC=30,MS2=0,
  ORBSYM=1,1,1,1,1,1,1,1,1,1,1,1,1,1,1,1,1,1,1,1,1,1,1,1,1,
  ISYM=1,
 &END
 -0.5732341670283742    1    1    1    1
 -0.5755570693671227    2    2    1    1
 -0.5778893847443565    2    2    2    2
 -0.5781208512844331    3    3    1    1
 -0.5804635558103853    3    3    2    2
 -0.5830491933557304    3    3    3    3
 -0.5838884113988961    4    4    1    1
 -0.5862544876630478    4    4    2    2
 -0.5888659205415725    4    4    3    3
 -0.5947406776767569    4    4    4    4
 -0.5842702193768361    5    5    1    1
 -0.5866378428318147    5    5    2    2
 -0.5892509833412624    5    5    3    3
 -0.5951295820138003    5    5    4    4
 -0.5955187406576181    5    5    5    5
 -0.5845696669698291    6    6    1    1
 -0.5869385038687267    6    6    2    2
 -0.5895529836534099    6    6    3    3
 -0.5954345951993826    6    6    4    4
 -0.5958239532930703    6    6    5    5
 -0.5961293223547545    6    6    6    6
 -0.6100870930989053    7    7    1    1
 -0.6125593336192956    7    7    2    2
 -0.6152879397409088    7    7    3    3
 -0.6214262932915123    7    7    4    4
 -0.6218326475055169    7    7    5    5
 -0.6221513464283177    7    7    6    6
 -0.6493092745943191    7    7    7    7
 -0.6177697020397342    8    8    1    1
 -0.620273074602321    8    8    2    2
 -0.6230360410866153    8    8    3    3
 -0.6292516927318733    8    8    4    4
 -0.629663164019412    8    8    5    5
 -0.629985876203961    8    8    6    6
 -0.6574857944630206    8    8    7    7
 -0.6657652783271232    8    8    8    8
 -0.6222649151124096    9    9    1    1
 -0.6247865035134097    9    9    2    2
 -0.6275695747762623    9    9    3    3
 -0.633830454729802    9    9    4    4
 -0.6342449200960479    9    9    5    5
 -0.6345699805019905    9    9    6    6
 -0.6622700024431301    9    9    7    7
 -0.6706097321301956    9    9    8    8
 -0.6754894366941804    9    9    9    9
 -0.6263110117632199   10   10    1    1
 -0.6288489960594992   10   10    2    2
 -0.6316501634338986   10   10    3    3
 -0.6379517529386214   10   10    4    4
 -0.6383689132453814   10   10    5    5
 -0.6386960872620835   10   10    6    6
 -0.6665762205405031   10   10    7    7
 -0.6749701768945974   10   10    8    8
 -0.6798816103184517   10   10    9    9
 -0.6843023427744349   10   10   10   10
 -0.6306325746871929   11   11    1    1
 -0.6331880711437733   11   11    2    2
 -0.6360085666488327   11   11    3    3
 -0.642353637291607   11   11    4    4
 -0.6427736760157685   11   11    5    5
 -0.6431031075420365   11   11    6    6
 -0.6711756144942835   11   11    7    7
 -0.6796274893742923   11   11    8    8
 -0.6845728118216341   11   11    9    9
 -0.6890240474511522   11   11   10   10
 -0.693778332017869   11   11   11   11
 -0.643567719266997   12   12    1    1
 -0.6461756324832976   12   12    2    2
 -0.6490539802443439   12   12    3    3
 -0.6555291970442116   12   12    4    4
 -0.6559578513423923   12   12    5    5
 -0.6562940399639839   12   12    6    6
 -0.6849423527827849   12   12    7    7
 -0.6935675872828507   12   12    8    8
 -0.6986143451197009   12   12    9    9
 -0.7031568817360974   12   12   10   10
 -0.7080086832416981   12   12   11   11
 -0.7225309186115262   12   12   12   12
 -0.6606758047813988   13   13    1    1
 -0.6633530446605863   13   13    2    2
 -0.6663079080984791   13   13    3    3
 -0.6729552568425383   13   13    4    4
 -0.6733953061410739   13   13    5    5
 -0.6737404317300041   13   13    6    6
 -0.7031503082053937   13   13    7    7
 -0.7120048289872153   13   13    8    8
 -0.7171857457665645   13   13    9    9
 -0.7218490375149524   13   13   10   10
 -0.7268298154010829   13   13   11   11
 -0.7417380981706316   13   13   12   12
 -0.7614558659095825   13   13   13   13
 -0.6680787775733332   14   14    1    1
 -0.6707860163322129   14   14    2    2
 -0.6737739894639619   14   14    3    3
 -0.6804958227608604   14   14    4    4
 -0.680940802878658   14   14    5    5
 -0.681289795652259   14   14    6    6
 -0.7110292142628165   14   14    7    7
 -0.7199829512955725   14   14    8    8
 -0.7252219210347504   14   14    9    9
 -0.7299374656758346   14   14   10   10
 -0.7349740539350811   14   14   11   11
 -0.7500493862785946   14   14   12   12
 -0.7699880946014636   14   14   13   13
 -0.7786159282124344   14   14   14   14
 -0.6717514052723095   15   15    1    1
 -0.6744735265276661   15   15    2    2
 -0.6774779254362185   15   15    3    3
 -0.6842367106495418   15   15    4    4
 -0.6846841369553655   15   15    5    5
 -0.6850350482460187   15   15    6    6
 -0.7149379532839363   15   15    7    7
 -0.723940911671628   15   15    8    8
 -0.7292086815853123   15   15    9    9
 -0.7339501489774941   15   15   10   10
 -0.7390144248600722   15   15   11   11
 -0.7541726307882505   15   15   12   12
 -0.7742209481197073   15   15   13   13
 -0.7828962114975941   15   15   14   14
 -0.7872000247727495   15   15   15   15
 -0.674753766581528   16   16    1    1
 -0.6774880542297972   16   16    2    2
 -0.6805058811579558   16   16    3    3
 -0.6872948744438824   16   16    4    4
 -0.6877443005005346   16   16    5    5
 -0.6880967801726958   16   16    6    6
 -0.7181333348381609   16   16    7    7
 -0.7271765315249011   16   16    8    8
 -0.7324678454884387   16   16    9    9
 -0.7372305046461092   16   16   10   10
 -0.74231741507154   16   16   11   11
 -0.7575433698881298   16   16   12   12
 -0.7776812922309025   16   16   13   13
 -0.7863953292904052   16   16   14   14
 -0.7907183782565586   16   16   15   15
 -0.7942524568557737   16   16   16   16
 -0.6764313173718625   17   17    1    1
 -0.6791724029168349   17   17    2    2
 -0.6821977326677998   17   17    3    3
 -0.6890036045272392   17   17    4    4
 -0.6894541479322841   17   17    5    5
 -0.6898075039279012   17   17    6    6
 -0.7199187344951745   17   17    7    7
 -0.728984414082345   17   17    8    8
 -0.734288883137949   17   17    9    9
 -0.7390633830633627   17   17   10   10
 -0.7441629403994552   17   17   11   11
 -0.7594267494879308   17   17   12   12
 -0.7796147380759251   17   17   13   13
 -0.7883504396899366   17   17   14   14
 -0.7926842364793242   17   17   15   15
 -0.7962271013893994   17   17   16   16
 -0.7982066552198117   17   17   17   17
 -0.6819268129952217   18   18    1    1
 -0.684690167798327   18   18    2    2
 -0.687740076077782   18   18    3    3
 -0.6946012405265148   18   18    4    4
 -0.6950554442578145   18   18    5    5
 -0.695411671005092   18   18    6    6
 -0.7257675326702265   18   18    7    7
 -0.7349068640845887   18   18    8    8
 -0.7402544279611015   18   18    9    9
 -0.7450677171068987   18   18   10   10
 -0.7502087045103194   18   18   11   11
 -0.7655965205657806   18   18   12   12
 -0.7859485213750909   18   18   13   13
 -0.7947551939934805   18   18   14   14
 -0.7991241996217805   18   18   15   15
 -0.8026958476442094   18   18   16   16
 -0.8046914838604188   18   18   17   17
 -0.811228996855664   18   18   18   18
 -0.7217934250719802   19   19    1    1
 -0.7247183303404234   19   19    2    2
 -0.7279465414933388   19   19    3    3
 -0.7352088213935539   19   19    4    4
 -0.7356895786546673   19   19    5    5
 -0.736066631029086   19   19    6    6
 -0.7681971484757466   19   19    7    7
 -0.7778707808930815   19   19    8    8
 -0.7835309725333922   19   19    9    9
 -0.7886256548250991   19   19   10   10
 -0.7940671931770935   19   19   11   11
 -0.8103546073737352   19   19   12   12
 -0.831896421086408   19   19   13   13
 -0.8412179469035189   19   19   14   14
 -0.8458423721006428   19   19   15   15
 -0.8496228247975198   19   19   16   16
 -0.8517351293326189   19   19   17   17
 -0.8586548365597985   19   19   18   18
 -0.9088532722637803   19   19   19   19
 -0.7718626898579692   20   20    1    1
 -0.7749904895436691   20   20    2    2
 -0.7784426347937733   20   20    3    3
 -0.7862086835046252   20   20    4    4
 -0.7867227898678062   20   20    5    5
 -0.7871259975582989   20   20    6    6
 -0.8214853402198572   20   20    7    7
 -0.8318300118100656   20   20    8    8
 -0.8378828388279429   20   20    9    9
 -0.8433309283242644   20   20   10   10
 -0.8491499345432763   20   20   11   11
 -0.8665671717969919   20   20   12   12
 -0.8896032950133052   20   20   13   13
 -0.8995714351221712   20   20   14   14
 -0.904516646795917   20   20   15   15
 -0.9085593414037284   20   20   16   16
 -0.9108181719827105   20   20   17   17
 -0.9182178844875285   20   20   18   18
 -0.9718984782187249   20   20   19   19
 -1.039316995152681   20   20   20   20
 -0.9142716719981453   21   21    1    1
 -0.9179765520058139   21   21    2    2
 -0.922065619467248   21   21    3    3
 -0.9312645073432718   21   21    4    4
 -0.931873466540842   21   21    5    5
 -0.9323510662152313   21   21    6    6
 -0.9730497216583652   21   21    7    7
 -0.9853029893902099   21   21    8    8
 -0.9924725654698214   21   21    9    9
 -0.9989258297076795   21   21   10   10
 -1.005818444955351   21   21   11   11
 -1.026449169609853   21   21   12   12
 -1.05373546698641   21   21   13   13
 -1.065542733024521   21   21   14   14
 -1.07140033827575   21   21   15   15
 -1.076188911693053   21   21   16   16
 -1.078864497438215   21   21   17   17
 -1.08762945992828   21   21   18   18
 -1.151214145170036   21   21   19   19
 -1.231071406067288   21   21   20   20
 -1.458204584265315   21   21   21   21
 -1.016975021557789   22   22    1    1
 -1.021096083755235   22   22    2    2
 -1.025644490533119   22   22    3    3
 -1.035876721808076   22   22    4    4
 -1.036554087532121   22   22    5    5
 -1.037085337656164   22   22    6    6
 -1.082355816075557   22   22    7    7
 -1.095985536428274   22   22    8    8
 -1.103960496181963   22   22    9    9
 -1.111138678267678   22   22   10   10
 -1.118805565205967   22   22   11   11
 -1.141753811654871   22   22   12   12
 -1.172105274696605   22   22   13   13
 -1.185238892418134   22   22   14   14
 -1.191754503050176   22   22   15   15
 -1.197080993745933   22   22   16   16
 -1.200057137439546   22   22   17   17
 -1.209806698965176   22   22   18   18
 -1.280534075329311   22   22   19   19
 -1.369361982952259   22   22   20   20
 -1.622009829176784   22   22   21   21
 -1.804215892841697   22   22   22   22
 -1.018867036577289   23   23    1    1
 -1.022995765739418   23   23    2    2
 -1.027552634528419   23   23    3    3
 -1.037803902195466   23   23    4    4
 -1.038482528113809   23   23    5    5
 -1.039014766593704   23   23    6    6
 -1.084369467755341   23   23    7    7
 -1.098024545304717   23   23    8    8
 -1.106014341945561   23   23    9    9
 -1.113205878566078   23   23   10   10
 -1.120887029242348   23   23   11   11
 -1.143877969391718   23   23   12   12
 -1.174285899330596   23   23   13   13
 -1.187443951282525   23   23   14   14
 -1.193971683778838   23   23   15   15
 -1.199308084059574   23   23   16   16
 -1.202289764672431   23   23   17   17
 -1.212057464614885   23   23   18   18
 -1.282916424602545   23   23   19   19
 -1.371909590694787   23   23   20   20
 -1.62502747159034   23   23   21   21
 -1.807572517631211   23   23   22   22
 -1.81093538719998   23   23   23   23
 -1.025586768232626   24   24    1    1
 -1.029742727593644   24   24    2    2
 -1.034329650289928   24   24    3    3
 -1.044648528121379   24   24    4    4
 -1.045331629779835   24   24    5    5
 -1.045867378531073   24   24    6    6
 -1.091521207459311   24   24    7    7
 -1.105266344313357   24   24    8    8
 -1.113308836043431   24   24    9    9
 -1.120547802990522   24   24   10   10
 -1.128279613143932   24   24   11   11
 -1.151422185393235   24   24   12   12
 -1.182030664689435   24   24   13   13
 -1.195275497914141   24   24   14   14
 -1.201846282751061   24   24   15   15
 -1.207217878181513   24   24   16   16
 -1.210219223866338   24   24   17   17
 -1.220051344699985   24   24   18   18
 -1.291377640639638   24   24   19   19
 -1.380957743175823   24   24   20   20
 -1.635745011906808   24   24   21   21
 -1.819493996911616   24   24   22   22
 -1.822879045607083   24   24   23   23
 -1.834901475999733   24   24   24   24
 -1.026852685716246   25   25    1    1
 -1.031013774922714   25   25    2    2
 -1.035606359417508   25   25    3    3
 -1.045937974199418   25   25    4    4
 -1.046621919034054   25   25    5    5
 -1.047158329078643   25   25    6    6
 -1.092868510118691   25   25    7    7
 -1.106630613074092   25   25    8    8
 -1.114683031931942   25   25    9    9
 -1.12193093418817   25   25   10   10
 -1.12967228798426   25   25   11   11
 -1.152843425916871   25   25   12   12
 -1.18348968632559   25   25   13   13
 -1.196750868109449   25   25   14   14
 -1.203329763495046   25   25   15   15
 -1.208707989272905   25   25   16   16
 -1.211713039623288   25   25   17   17
 -1.221557296586271   25   25   18   18
 -1.292971633058299   25   25   19   19
 -1.382662307436377   25   25   20   20
 -1.637764068970976   25   25   21   21
 -1.821739861750532   25   25   22   22
 -1.825129088729554   25   25   23   23
 -1.837166358826947   25   25   24   24
 -1.839434037277953   25   25   25   25
 -0.2866170835141871    1    1  0  0
 -0.2889446923721782    2    2  0  0
 -0.2915245966778652    3    3  0  0
 -0.2973703388383784    4    4  0  0
 -0.2977593703288091    5    5  0  0
 -0.2980646611773772    6    6  0  0
 -0.3246546372971595    7    7  0  0
 -0.3328826391635616    8    8  0  0
 -0.3377447183470902    9    9  0  0
 -0.3421511713872175   10   10  0  0
 -0.3468891660089345   11   11  0  0
 -0.3612654593057631   12   12  0  0
 -0.3807279329547912   13   13  0  0
 -0.3893079641062172   14   14  0  0
 -0.3936000123863748   15   15  0  0
 -0.3971262284278869   16   16  0  0
 -0.3991033276099059   17   17  0  0
 -0.405614498427832   18   18  0  0
 -0.4544266361318902   19   19  0  0
 -0.5196584975763403   20   20  0  0
 -0.7291022921326573   21   21  0  0
 -0.9021079464208486   22   22  0  0
 -0.9054676935999898   23   23  0  0
 -0.9174507379998667   24   24  0  0
 -0.9197170186389764   25   25  0  0
 -3199.52531891487  0  0  0  0
