 &FCI NORB=  54,NELEC=76,MS2=0,
  ORBSYM=1,1,1,1,1,1,1,1,1,1,1,1,1,1,1,1,1,1,1,1,1,1,1,1,1,1,1,1,1,1,1,1,1,1,1,1,1,1,1,1,1,1,1,1,1,1,1,1,1,1,1,1,1,1,
  ISYM=1,
 &END
 -0.4318759519839463    1    1    1    1
 -0.4345703742742317    2    2    1    1
 -0.4372816067421735    2    2    2    2
 -0.4364685843540277    3    3    1    1
 -0.4391916595270962    3    3    2    2
 -0.4411100554519657    3    3    3    3
 -0.4369948776152836    4    4    1    1
 -0.4397212362689159    4    4    2    2
 -0.4416419453931401    4    4    3    3
 -0.4421744766865259    4    4    4    4
 -0.4391968484553273    5    5    1    1
 -0.4419369449410541    5    5    2    2
 -0.4438673323148423    5    5    3    3
 -0.4444025469769344    5    5    4    4
 -0.4466418442772243    5    5    5    5
 -0.4397693786525279    6    6    1    1
 -0.442513047085519    6    6    2    2
 -0.4444459508823363    6    6    3    3
 -0.4449818632419578    6    6    4    4
 -0.447224079655464    6    6    5    5
 -0.447807074026709    6    6    6    6
 -0.4422207466448757    7    7    1    1
 -0.4449797088688962    7    7    2    2
 -0.4469233870823278    7    7    3    3
 -0.4474622867313534    7    7    4    4
 -0.4497170017357456    7    7    5    5
 -0.450303245841535    7    7    6    6
 -0.4528133318486339    7    7    7    7
 -0.4433733172527116    8    8    1    1
 -0.4461394702265819    8    8    2    2
 -0.4480882142954644    8    8    3    3
 -0.448628518491655    8    8    4    4
 -0.4508891100141953    8    8    5    5
 -0.4514768820621505    8    8    6    6
 -0.4539935101670068    8    8    7    7
 -0.4551767644126221    8    8    8    8
 -0.4436176203057535    9    9    1    1
 -0.4463852974570842    9    9    2    2
 -0.4483351153030911    9    9    3    3
 -0.4488757172122012    9    9    4    4
 -0.4511375543428762    9    9    5    5
 -0.4517256502590034    9    9    6    6
 -0.4542436650506662    9    9    7    7
 -0.4554275712809939    9    9    8    8
 -0.4556785163464138    9    9    9    9
 -0.4441773312889462   10   10    1    1
 -0.4469485004100018   10   10    2    2
 -0.4489007783351707   10   10    3    3
 -0.4494420623200421   10   10    4    4
 -0.4517067532036481   10   10    5    5
 -0.4522955911185786   10   10    6    6
 -0.4548167828817373   10   10    7    7
 -0.456002182842904   10   10    8    8
 -0.4562534445249389   10   10    9    9
 -0.4568290980885735   10   10   10   10
 -0.4445777841269379   11   11    1    1
 -0.4473514516252426   11   11    2    2
 -0.4493054896475184   11   11    3    3
 -0.4498472616327729   11   11    4    4
 -0.4521139942727398   11   11    5    5
 -0.4527033630608094   11   11    6    6
 -0.4552268278314485   11   11    7    7
 -0.4564132965026668   11   11    8    8
 -0.4566647847123665   11   11    9    9
 -0.4572409572626468   11   11   10   10
 -0.4576531877527768   11   11   11   11
 -0.4453433936258722   12   12    1    1
 -0.448121837670058   12   12    2    2
 -0.4500792407504283   12   12    3    3
 -0.450621945723774   12   12    4    4
 -0.4528925819147114   12   12    5    5
 -0.4534829656575508   12   12    6    6
 -0.4560107760987735   12   12    7    7
 -0.4571992879932865   12   12    8    8
 -0.4574512092920184   12   12    9    9
 -0.4580283740717651   12   12   10   10
 -0.4584413144659664   12   12   11   11
 -0.4592307984158861   12   12   12   12
 -0.4460374644599558   13   13    1    1
 -0.4488202387288688   13   13    2    2
 -0.4507806924358074   13   13    3    3
 -0.451324243218699   13   13    4    4
 -0.4535984182122268   13   13    5    5
 -0.454189722072312   13   13    6    6
 -0.4567214721240161   13   13    7    7
 -0.4579118363227369   13   13    8    8
 -0.4581641502425977   13   13    9    9
 -0.4587422145377426   13   13   10   10
 -0.4591557985024739   13   13   11   11
 -0.4599465128687228   13   13   12   12
 -0.4606633427676048   13   13   13   13
 -0.4464703696501008   14   14    1    1
 -0.4492558447625977   14   14    2    2
 -0.4512182012033925   14   14    3    3
 -0.4517622795337969   14   14    4    4
 -0.4540386617458578   14   14    5    5
 -0.4546305395005827   14   14    6    6
 -0.4571647467623306   14   14    7    7
 -0.4583562662784426   14   14    8    8
 -0.4586088250835745   14   14    9    9
 -0.4591874504235947   14   14   10   10
 -0.4596014357955152   14   14   11   11
 -0.4603929175958483   14   14   12   12
 -0.4611104432196602   14   14   13   13
 -0.4615579776085967   14   14   14   14
 -0.4470583966552064   15   15    1    1
 -0.4498475403976943   15   15    2    2
 -0.4518124813741253   15   15    3    3
 -0.4523572762868001   15   15    4    4
 -0.4546366566243932   15   15    5    5
 -0.4552293139159635   15   15    6    6
 -0.4577668588735759   15   15    7    7
 -0.4589599476890193   15   15    8    8
 -0.4592128391285384   15   15    9    9
 -0.459792226551216   15   15   10   10
 -0.4602067571655422   15   15   11   11
 -0.4609992813926617   15   15   12   12
 -0.4617177520387468   15   15   13   13
 -0.4621658758560627   15   15   14   14
 -0.4627745747402789   15   15   15   15
 -0.44945936508144   16   16    1    1
 -0.4522634881781062   16   16    2    2
 -0.4542389820516064   16   16    3    3
 -0.4547867028356974   16   16    4    4
 -0.4570783247960021   16   16    5    5
 -0.4576741650083168   16   16    6    6
 -0.4602253380855864   16   16    7    7
 -0.4614248344947513   16   16    8    8
 -0.4616790841111128   16   16    9    9
 -0.4622615831874778   16   16   10   10
 -0.4626783400767697   16   16   11   11
 -0.4634751206284781   16   16   12   12
 -0.4641974498875528   16   16   13   13
 -0.464647980395235   16   16   14   14
 -0.4652599483530511   16   16   15   15
 -0.4677586698944524   16   16   16   16
 -0.4509409925057393   17   17    1    1
 -0.4537543592982853   17   17    2    2
 -0.4557363653197724   17   17    3    3
 -0.4562858916466946   17   17    4    4
 -0.458585067860412   17   17    5    5
 -0.4591828722396073   17   17    6    6
 -0.4617424551716693   17   17    7    7
 -0.4629459056797211   17   17    8    8
 -0.463200993421247   17   17    9    9
 -0.4637854126858942   17   17   10   10
 -0.4642035434000175   17   17   11   11
 -0.4650029505115625   17   17   12   12
 -0.4657276609043342   17   17   13   13
 -0.4661796765704256   17   17   14   14
 -0.4667936618596838   17   17   15   15
 -0.4693006203511835   17   17   16   16
 -0.4708476537948565   17   17   17   17
 -0.4512467986797536   18   18    1    1
 -0.4540620733603588   18   18    2    2
 -0.4560454234816024   18   18    3    3
 -0.4565953224704613   18   18    4    4
 -0.458896057873281   18   18    5    5
 -0.4594942676542318   18   18    6    6
 -0.462055586370524   18   18    7    7
 -0.4632598529999788   18   18    8    8
 -0.463515113729562   18   18    9    9
 -0.4640999293188333   18   18   10   10
 -0.464518343588801   18   18   11   11
 -0.465318292819236   18   18   12   12
 -0.4660434946752283   18   18   13   13
 -0.4664958168762849   18   18   14   14
 -0.4671102185404021   18   18   15   15
 -0.4696188771288046   18   18   16   16
 -0.4711669596950598   18   18   17   17
 -0.4714864821329416   18   18   18   18
 -0.4514815687243007   19   19    1    1
 -0.4542983081070691   19   19    2    2
 -0.4562826901053204   19   19    3    3
 -0.4568328751899708   19   19    4    4
 -0.459134807595749   19   19    5    5
 -0.4597333286071337   19   19    6    6
 -0.4622959798999913   19   19    7    7
 -0.4635008730729053   19   19    8    8
 -0.4637562666069163   19   19    9    9
 -0.4643413864580291   19   19   10   10
 -0.4647600184162709   19   19   11   11
 -0.4655603838360661   19   19   12   12
 -0.4662859629926233   19   19   13   13
 -0.4667385205232238   19   19   14   14
 -0.4673532418419213   19   19   15   15
 -0.4698632056094194   19   19   16   16
 -0.4714120935961542   19   19   17   17
 -0.4717317822718846   19   19   18   18
 -0.4719772100330616   19   19   19   19
 -0.4577990084812436   20   20    1    1
 -0.4606551616133083   20   20    2    2
 -0.4626673104454619   20   20    3    3
 -0.4632251940971597   20   20    4    4
 -0.4655593367199334   20   20    5    5
 -0.4661662326478033   20   20    6    6
 -0.4687647423151376   20   20    7    7
 -0.4699864951796997   20   20    8    8
 -0.4702454623551994   20   20    9    9
 -0.4708387696045718   20   20   10   10
 -0.4712632593482908   20   20   11   11
 -0.4720748240299682   20   20   12   12
 -0.4728105559877203   20   20   13   13
 -0.4732694460136743   20   20   14   14
 -0.4738927689346679   20   20   15   15
 -0.4764378538366523   20   20   16   16
 -0.478008414926398   20   20   17   17
 -0.4783325769053368   20   20   18   18
 -0.4785814388600741   20   20   19   19
 -0.4852780785863257   20   20   20   20
 -0.4581938065763087   21   21    1    1
 -0.4610524228063594   21   21    2    2
 -0.4630663068815153   21   21    3    3
 -0.4636246716426058   21   21    4    4
 -0.4659608271903619   21   21    5    5
 -0.4665682464949796   21   21    6    6
 -0.4691689970729487   21   21    7    7
 -0.4703918035564453   21   21    8    8
 -0.470650994060842   21   21    9    9
 -0.4712448129683164   21   21   10   10
 -0.4716696687847861   21   21   11   11
 -0.4724819333460709   21   21   12   12
 -0.4732182997865763   21   21   13   13
 -0.4736775855515003   21   21   14   14
 -0.4743014460156018   21   21   15   15
 -0.47684872575561   21   21   16   16
 -0.4784206412705837   21   21   17   17
 -0.4787450828013113   21   21   18   18
 -0.4789941593703747   21   21   19   19
 -0.4856965741650696   21   21   20   20
 -0.4861154306472978   21   21   21   21
 -0.459093541352286   22   22    1    1
 -0.461957770919742   22   22    2    2
 -0.4639756095693841   22   22    3    3
 -0.4645350707664937   22   22    4    4
 -0.4668758137188768   22   22    5    5
 -0.4674844257857365   22   22    6    6
 -0.4700902833418119   22   22    7    7
 -0.4713154909959523   22   22    8    8
 -0.4715751904612014   22   22    9    9
 -0.4721701754244236   22   22   10   10
 -0.4725958655113424   22   22   11   11
 -0.4734097250803784   22   22   12   12
 -0.474147537490875   22   22   13   13
 -0.4746077251348049   22   22   14   14
 -0.4752328106459211   22   22   15   15
 -0.4777850923657321   22   22   16   16
 -0.4793600945812098   22   22   17   17
 -0.479685173203325   22   22   18   18
 -0.4799347388729563   22   22   19   19
 -0.4866503149011452   22   22   20   20
 -0.4870699938731971   22   22   21   21
 -0.4880264315323993   22   22   22   22
 -0.4592844263352049   23   23    1    1
 -0.4621498468111858   23   23    2    2
 -0.4641685244512763   23   23    3    3
 -0.464728218264904   23   23    4    4
 -0.4670699344670461   23   23    5    5
 -0.4676787995867012   23   23    6    6
 -0.4702857406236585   23   23    7    7
 -0.4715114577028312   23   23    8    8
 -0.4717712651476608   23   23    9    9
 -0.4723664974977101   23   23   10   10
 -0.4727923645809001   23   23   11   11
 -0.4736065625419106   23   23   12   12
 -0.4743446817249855   23   23   13   13
 -0.4748050607088117   23   23   14   14
 -0.4754304061221621   23   23   15   15
 -0.4779837490467355   23   23   16   16
 -0.4795594061271675   23   23   17   17
 -0.4798846199126462   23   23   18   18
 -0.4801342893483608   23   23   19   19
 -0.4868526576236626   23   23   20   20
 -0.4872725110926444   23   23   21   21
 -0.4882293464258928   23   23   22   22
 -0.4884323456886978   23   23   23   23
 -0.4598012724077254   24   24    1    1
 -0.4626699174243922   24   24    2    2
 -0.4646908667409215   24   24    3    3
 -0.4652511903942145   24   24    4    4
 -0.4675955417974491   24   24    5    5
 -0.4682050920906649   24   24    6    6
 -0.4708149667939061   24   24    7    7
 -0.4720420632080226   24   24    8    8
 -0.4723021630216977   24   24    9    9
 -0.4728980652039571   24   24   10   10
 -0.4733244115277151   24   24   11   11
 -0.4741395257292823   24   24   12   12
 -0.4748784755392605   24   24   13   13
 -0.4753393726008964   24   24   14   14
 -0.4759654217335597   24   24   15   15
 -0.478521638008908   24   24   16   16
 -0.4800990682219066   24   24   17   17
 -0.4804246479798811   24   24   18   18
 -0.4806745983758457   24   24   19   19
 -0.4874005270256295   24   24   20   20
 -0.487820852967885   24   24   21   21
 -0.4887787650556578   24   24   22   22
 -0.488981992759415   24   24   23   23
 -0.4895322583639067   24   24   24   24
 -0.4602256579197385   25   25    1    1
 -0.4630969506267386   25   25    2    2
 -0.4651197652308647   25   25    3    3
 -0.4656806060494088   25   25    4    4
 -0.4680271212325855   25   25    5    5
 -0.4686372341260567   25   25    6    6
 -0.4712495176808577   25   25    7    7
 -0.4724777466754416   25   25    8    8
 -0.4727380865549868   25   25    9    9
 -0.4733345387406235   25   25   10   10
 -0.473761278571781   25   25   11   11
 -0.4745771451041452   25   25   12   12
 -0.4753167769470195   25   25   13   13
 -0.4757780994055546   25   25   14   14
 -0.476404726366505   25   25   15   15
 -0.4789633019679753   25   25   16   16
 -0.4805421881111089   25   25   17   17
 -0.4808680683713668   25   25   18   18
 -0.4811182494655332   25   25   19   19
 -0.4878503859856408   25   25   20   20
 -0.4882710998786282   25   25   21   21
 -0.4892298960962115   25   25   22   22
 -0.4894333113742499   25   25   23   23
 -0.4899840848606556   25   25   24   24
 -0.4904363283823904   25   25   25   25
 -0.460510731157777   26   26    1    1
 -0.463383802402534   26   26    2    2
 -0.4654078699796295   26   26    3    3
 -0.4659690581945115   26   26    4    4
 -0.4683170268574537   26   26    5    5
 -0.4689275176673994   26   26    6    6
 -0.4715414193243614   26   26    7    7
 -0.4727704091092457   26   26    8    8
 -0.4730309102486669   26   26    9    9
 -0.4736277318890547   26   26   10   10
 -0.4740547360516402   26   26   11   11
 -0.4748711079485147   26   26   12   12
 -0.4756111979345646   26   26   13   13
 -0.4760728061457185   26   26   14   14
 -0.4766998212522965   26   26   15   15
 -0.4792599816881168   26   26   16   16
 -0.4808398458258007   26   26   17   17
 -0.4811659279429942   26   26   18   18
 -0.4814162640044759   26   26   19   19
 -0.4881525705484048   26   26   20   20
 -0.4885735450402305   26   26   21   21
 -0.4895329351559107   26   26   22   22
 -0.4897364764335558   26   26   23   23
 -0.4902875910803869   26   26   24   24
 -0.4907401147310604   26   26   25   25
 -0.4910440892512428   26   26   26   26
 -0.4614716912214941   27   27    1    1
 -0.4643507577808868   27   27    2    2
 -0.4663790490339496   27   27    3    3
 -0.4669414082952941   27   27    4    4
 -0.4692942765272655   27   27    5    5
 -0.469906041264718   27   27    6    6
 -0.4725253974202029   27   27    7    7
 -0.4737569517709529   27   27    8    8
 -0.4740179965050715   27   27    9    9
 -0.4746160635491443   27   27   10   10
 -0.4750439587527405   27   27   11   11
 -0.4758620341946944   27   27   12   12
 -0.4766036685463192   27   27   13   13
 -0.4770662400076778   27   27   14   14
 -0.4776945635234545   27   27   15   15
 -0.4802600663145537   27   27   16   16
 -0.481843227197003   27   27   17   17
 -0.4821699897584748   27   27   18   18
 -0.4824208482029138   27   27   19   19
 -0.4891712115779384   27   27   20   20
 -0.4895930645284994   27   27   21   21
 -0.4905544566292026   27   27   22   22
 -0.4907584226418776   27   27   23   23
 -0.4913106873143873   27   27   24   24
 -0.4917641552582701   27   27   25   25
 -0.4920687640902165   27   27   26   26
 -0.493095577145592   27   27   27   27
 -0.462199507542128   28   28    1    1
 -0.4650831148602931   28   28    2    2
 -0.4671146050603445   28   28    3    3
 -0.4676778512542057   28   28    4    4
 -0.4700344303441389   28   28    5    5
 -0.4706471599346232   28   28    6    6
 -0.4732706472431035   28   28    7    7
 -0.4745041439564584   28   28    8    8
 -0.4747656004008108   28   28    9    9
 -0.4753646106944129   28   28   10   10
 -0.475793180758718   28   28   11   11
 -0.476612546439422   28   28   12   12
 -0.4773553504696976   28   28   13   13
 -0.4778186514818941   28   28   14   14
 -0.4784479659666038   28   28   15   15
 -0.4810175149751362   28   28   16   16
 -0.4826031727611884   28   28   17   17
 -0.4829304506806545   28   28   18   18
 -0.4831817047698828   28   28   19   19
 -0.4899427145718238   28   28   20   20
 -0.4903652328534726   28   28   21   21
 -0.4913281412267331   28   28   22   22
 -0.4915324289271643   28   28   23   23
 -0.4920855646113733   28   28   24   24
 -0.4925397477483583   28   28   25   25
 -0.4928448369982449   28   28   26   26
 -0.4938732695057214   28   28   27   27
 -0.4946521884138773   28   28   28   28
 -0.4636104155993736   29   29    1    1
 -0.4665028254037654   29   29    2    2
 -0.46854051692131   29   29    3    3
 -0.469105482477871   29   29    4    4
 -0.4714692552501238   29   29    5    5
 -0.4720838552560931   29   29    6    6
 -0.4747153510096739   29   29    7    7
 -0.475952613089333   29   29    8    8
 -0.4762148676544058   29   29    9    9
 -0.4768157064840315   29   29   10   10
 -0.4772455847993126   29   29   11   11
 -0.4780674516718653   29   29   12   12
 -0.4788125231822531   29   29   13   13
 -0.4792772384649548   29   29   14   14
 -0.4799084739921202   29   29   15   15
 -0.4824858667939507   29   29   16   16
 -0.4840763649515521   29   29   17   17
 -0.4844046419180661   29   29   18   18
 -0.4846566629843533   29   29   19   19
 -0.491438311413227   29   29   20   20
 -0.4918621194722083   29   29   21   21
 -0.4928279672150702   29   29   22   22
 -0.4930328785231813   29   29   23   23
 -0.4935877027067955   29   29   24   24
 -0.4940432722811025   29   29   25   25
 -0.4943492928450078   29   29   26   26
 -0.4953808647407517   29   29   27   27
 -0.4961621613731274   29   29   28   28
 -0.497676743668778   29   29   29   29
 -0.464152843332771   30   30    1    1
 -0.4670486372787642   30   30    2    2
 -0.4690887129109749   30   30    3    3
 -0.4696543394815598   30   30    4    4
 -0.4720208778860416   30   30    5    5
 -0.4726361969787204   30   30    6    6
 -0.4752707716024667   30   30    7    7
 -0.4765094812882255   30   30    8    8
 -0.4767720426931459   30   30    9    9
 -0.4773735845087994   30   30   10   10
 -0.4778039657849983   30   30   11   11
 -0.4786267942480802   30   30   12   12
 -0.4793727374978359   30   30   13   13
 -0.479837996500974   30   30   14   14
 -0.4804699705785359   30   30   15   15
 -0.4830503789496644   30   30   16   16
 -0.4846427380022793   30   30   17   17
 -0.4849713990553559   30   30   18   18
 -0.4852237149882188   30   30   19   19
 -0.4920132979976417   30   30   20   20
 -0.4924376019152946   30   30   21   21
 -0.4934045797074054   30   30   22   22
 -0.4936097307633148   30   30   23   23
 -0.4941652040954689   30   30   24   24
 -0.4946213066896634   30   30   25   25
 -0.4949276852999699   30   30   26   26
 -0.4959604641427245   30   30   27   27
 -0.4967426748981379   30   30   28   28
 -0.4982590292666627   30   30   29   29
 -0.4988419961431521   30   30   30   30
 -0.4645889821201496   31   31    1    1
 -0.467487497083752   31   31    2    2
 -0.4695294896623419   31   31    3    3
 -0.4700956477209703   31   31    4    4
 -0.4724644098308649   31   31    5    5
 -0.4730803071049052   31   31    6    6
 -0.4757173572928932   31   31    7    7
 -0.4769572309257181   31   31    8    8
 -0.4772200390450871   31   31    9    9
 -0.4778221460963559   31   31   10   10
 -0.4782529317780662   31   31   11   11
 -0.4790765334076023   31   31   12   12
 -0.4798231775790243   31   31   13   13
 -0.480288873760347   31   31   14   14
 -0.4809214416690397   31   31   15   15
 -0.4835042747073746   31   31   16   16
 -0.4850981300118305   31   31   17   17
 -0.4854270998895435   31   31   18   18
 -0.4856796529097508   31   31   19   19
 -0.4924756157152754   31   31   20   20
 -0.4929003183278815   31   31   21   21
 -0.4938682047356084   31   31   22   22
 -0.4940735485606326   31   31   23   23
 -0.4946295438403929   31   31   24   24
 -0.4950860750090004   31   31   25   25
 -0.4953927415063629   31   31   26   26
 -0.496426490794346   31   31   27   27
 -0.4972094365499973   31   31   28   28
 -0.4987272157529599   31   31   29   29
 -0.4993107304112203   31   31   30   30
 -0.4997799051229876   31   31   31   31
 -0.4649502271755762   32   32    1    1
 -0.4678509959037727   32   32    2    2
 -0.4698945762508001   32   32    3    3
 -0.4704611745303703   32   32    4    4
 -0.4728317784910891   32   32    5    5
 -0.4734481546612148   32   32    6    6
 -0.4760872553096702   32   32    7    7
 -0.4773280930166261   32   32    8    8
 -0.4775911054846501   32   32    9    9
 -0.4781936807093011   32   32   10   10
 -0.4786248013520273   32   32   11   11
 -0.4794490433799108   32   32   12   12
 -0.4801962681107637   32   32   13   13
 -0.4806623263980539   32   32   14   14
 -0.4812953861652238   32   32   15   15
 -0.4838802275070268   32   32   16   16
 -0.4854753221270282   32   32   17   17
 -0.4858045477980257   32   32   18   18
 -0.4860572971929498   32   32   19   19
 -0.4928585442562912   32   32   20   20
 -0.4932835770999718   32   32   21   21
 -0.4942522160958842   32   32   22   22
 -0.4944577195877199   32   32   23   23
 -0.4950141471862683   32   32   24   24
 -0.4954710333345108   32   32   25   25
 -0.4957779382829775   32   32   26   26
 -0.4968124913713804   32   32   27   27
 -0.4975960459130637   32   32   28   28
 -0.4991150052779615   32   32   29   29
 -0.4996989736529333   32   32   30   30
 -0.5001685131754287   32   32   31   31
 -0.5005574233933167   32   32   32   32
 -0.4659774281619151   33   33    1    1
 -0.4688846054739225   33   33    2    2
 -0.4709327006434522   33   33    3    3
 -0.4715005506920885   33   33    4    4
 -0.4738763919590486   33   33    5    5
 -0.4744941298710832   33   33    6    6
 -0.4771390610076869   33   33    7    7
 -0.4783826400612257   33   33    8    8
 -0.4786462335950301   33   33    9    9
 -0.4792501400715634   33   33   10   10
 -0.4796822131765611   33   33   11   11
 -0.4805082761783349   33   33   12   12
 -0.4812571517310085   33   33   13   13
 -0.4817242396672898   33   33   14   14
 -0.4823586980349534   33   33   15   15
 -0.4849492499914   33   33   16   16
 -0.4865478686074576   33   33   17   17
 -0.4868778216271353   33   33   18   18
 -0.4871311294139313   33   33   19   19
 -0.4939474022741935   33   33   20   20
 -0.4943733741305485   33   33   21   21
 -0.4953441531123644   33   33   22   22
 -0.4955501106170754   33   33   23   23
 -0.4961077675149007   33   33   24   24
 -0.4965656630483949   33   33   25   25
 -0.4968732460330199   33   33   26   26
 -0.4979100847294097   33   33   27   27
 -0.498695370355306   33   33   28   28
 -0.5002176855128601   33   33   29   29
 -0.5008029440321434   33   33   30   30
 -0.5012735208946214   33   33   31   31
 -0.5016632903205194   33   33   32   32
 -0.5027716004072948   33   33   33   33
 -0.4672731585745599   34   34    1    1
 -0.470188419793277   34   34    2    2
 -0.4722422100438102   34   34    3    3
 -0.472811639097208   34   34    4    4
 -0.4751940867995857   34   34    5    5
 -0.4758135424381695   34   34    6    6
 -0.4784658282608716   34   34    7    7
 -0.4797128652999325   34   34    8    8
 -0.47997719180091   34   34    9    9
 -0.4805827775433064   34   34   10   10
 -0.4810160521019127   34   34   11   11
 -0.481844412113991   34   34   12   12
 -0.4825953700439864   34   34   13   13
 -0.4830637567986394   34   34   14   14
 -0.4836999793869558   34   34   15   15
 -0.4862977348188342   34   34   16   16
 -0.4879007986690038   34   34   17   17
 -0.4882316691798226   34   34   18   18
 -0.4884856813325026   34   34   19   19
 -0.495320908012225   34   34   20   20
 -0.4957480643566171   34   34   21   21
 -0.4967215427564191   34   34   22   22
 -0.496928072961408   34   34   23   23
 -0.4974872805201851   34   34   24   24
 -0.4979464493109934   34   34   25   25
 -0.4982548875830282   34   34   26   26
 -0.4992946093878065   34   34   27   27
 -0.5000820786354977   34   34   28   28
 -0.5016086268522688   34   34   29   29
 -0.5021955127835617   34   34   30   30
 -0.5026673981659707   34   34   31   31
 -0.503058251412819   34   34   32   32
 -0.5041696433464808   34   34   33   33
 -0.5055715737845993   34   34   34   34
 -0.4678529858296293   35   35    1    1
 -0.47077186452108   35   35    2    2
 -0.4728282032671594   35   35    3    3
 -0.4733983389104371   35   35    4    4
 -0.4757837429309474   35   35    5    5
 -0.4764039672361152   35   35    6    6
 -0.4790595442121395   35   35    7    7
 -0.4803081286674173   35   35    8    8
 -0.4805727831643577   35   35    9    9
 -0.4811791203625401   35   35   10   10
 -0.4816129325604125   35   35   11   11
 -0.4824423204631436   35   35   12   12
 -0.4831942102375372   35   35   13   13
 -0.483663178201278   35   35   14   14
 -0.4843001902618553   35   35   15   15
 -0.4869011691816952   35   35   16   16
 -0.4885062222326029   35   35   17   17
 -0.4888375033121363   35   35   18   18
 -0.4890918306619693   35   35   19   19
 -0.4959355389988355   35   35   20   20
 -0.4963632253905587   35   35   21   21
 -0.4973379117546918   35   35   22   22
 -0.4975446982377049   35   35   23   23
 -0.4981045997027719   35   35   24   24
 -0.4985643382643335   35   35   25   25
 -0.4988731592694943   35   35   26   26
 -0.4999141712383426   35   35   27   27
 -0.5007026176363879   35   35   28   28
 -0.5022310601076139   35   35   29   29
 -0.5028186742905777   35   35   30   30
 -0.503291145223432   35   35   31   31
 -0.5036824834700306   35   35   32   32
 -0.5047952545013837   35   35   33   33
 -0.5061989245589577   35   35   34   34
 -0.5068270537967712   35   35   35   35
 -0.4682173762968979   36   36    1    1
 -0.47113852837679   36   36    2    2
 -0.4731964687162314   36   36    3    3
 -0.473767048413517   36   36    4    4
 -0.4761543103221076   36   36    5    5
 -0.4767750176931769   36   36    6    6
 -0.4794326629833179   36   36    7    7
 -0.4806822199070567   36   36    8    8
 -0.4809470805319448   36   36    9    9
 -0.4815538899799615   36   36   10   10
 -0.4819880400554027   36   36   11   11
 -0.4828180739325201   36   36   12   12
 -0.4835705493213579   36   36   13   13
 -0.4840398825439741   36   36   14   14
 -0.4846773907457099   36   36   15   15
 -0.4872803954556007   36   36   16   16
 -0.4888866986129497   36   36   17   17
 -0.4892182377129959   36   36   18   18
 -0.4894727631474083   36   36   19   19
 -0.4963218017528721   36   36   20   20
 -0.4967498212510389   36   36   21   21
 -0.4977252667562491   36   36   22   22
 -0.4979322142963153   36   36   23   23
 -0.4984925518444312   36   36   24   24
 -0.4989526484764857   36   36   25   25
 -0.4992617100089783   36   36   26   26
 -0.5003035327770504   36   36   27   27
 -0.5010925932619138   36   36   28   28
 -0.5026222261709123   36   36   29   29
 -0.503210298021163   36   36   30   30
 -0.5036831369412038   36   36   31   31
 -0.5040747799842468   36   36   32   32
 -0.5051884177048558   36   36   33   33
 -0.5065931810203625   36   36   34   34
 -0.5072217994808879   36   36   35   35
 -0.5076168526153546   36   36   36   36
 -0.4682686255508164   37   37    1    1
 -0.4711900973686599   37   37    2    2
 -0.473248262962251   37   37    3    3
 -0.4738189051129723   37   37    4    4
 -0.4762064283219715   37   37    5    5
 -0.4768272036332567   37   37    6    6
 -0.4794851398189202   37   37    7    7
 -0.4807348335143025   37   37    8    8
 -0.4809997231298051   37   37    9    9
 -0.481606598996825   37   37   10   10
 -0.4820407965926459   37   37   11   11
 -0.482870921322045   37   37   12   12
 -0.4836234790739137   37   37   13   13
 -0.4840928636679199   37   37   14   14
 -0.4847304416488254   37   37   15   15
 -0.4873337312734931   37   37   16   16
 -0.4889402102505417   37   37   17   17
 -0.489271785639569   37   37   18   18
 -0.489526338933346   37   37   19   19
 -0.4963761272079515   37   37   20   20
 -0.4968041935554686   37   37   21   21
 -0.4977797458291521   37   37   22   22
 -0.4979867160208915   37   37   23   23
 -0.4985471149013772   37   37   24   24
 -0.4990072618938206   37   37   25   25
 -0.499316357254987   37   37   26   26
 -0.5003582940569297   37   37   27   27
 -0.5011474409092863   37   37   28   28
 -0.5026772412459569   37   37   29   29
 -0.5032653774642664   37   37   30   30
 -0.5037382681394174   37   37   31   31
 -0.5041299540501853   37   37   32   32
 -0.50524371366525   37   37   33   33
 -0.5066486307406888   37   37   34   34
 -0.5072773180073472   37   37   35   35
 -0.5076724143827943   37   37   36   36
 -0.5077279822318091   37   37   37   37
 -0.4783628503774299   38   38    1    1
 -0.481347298853851   38   38    2    2
 -0.4834498312597771   38   38    3    3
 -0.4840327744485149   38   38    4    4
 -0.4864717642617993   38   38    5    5
 -0.4871059213057419   38   38    6    6
 -0.4898211532485177   38   38    7    7
 -0.491097785945228   38   38    8    8
 -0.4913683856493147   38   38    9    9
 -0.4919883436258533   38   38   10   10
 -0.492431900994916   38   38   11   11
 -0.4932799202942167   38   38   12   12
 -0.494048700544728   38   38   13   13
 -0.4945282034199163   38   38   14   14
 -0.4951795253399469   38   38   15   15
 -0.497838932734045   38   38   16   16
 -0.4994800417484028   38   38   17   17
 -0.4998187647367806   38   38   18   18
 -0.5000788053043946   38   38   19   19
 -0.5070762509258431   38   38   20   20
 -0.50751354487845   38   38   21   21
 -0.5085101266284709   38   38   22   22
 -0.5087215583697011   38   38   23   23
 -0.5092940374793193   38   38   24   24
 -0.5097641036227406   38   38   25   25
 -0.5100798619929113   38   38   26   26