 &FCI NORB=  53,NELEC=74,MS2=0,
  ORBSYM=1,1,1,1,1,1,1,1,1,1,1,1,1,1,1,1,1,1,1,1,1,1,1,1,1,1,1,1,1,1,1,1,1,1,1,1,1,1,1,1,1,1,1,1,1,1,1,1,1,1,1,1,1,
  ISYM=1,
 &END
 -0.4293583552063835    1    1    1    1
 -0.4298785273475094    2    2    1    1
 -0.4303993296826285    2    2    2    2
 -0.43093965922987    3    3    1    1
 -0.4314617471373706    3    3    2    2
 -0.4325267871121083    3    3    3    3
 -0.4333247333673129    4    4    1    1
 -0.433849710817094    4    4    2    2
 -0.4349206453509532    4    4    3    3
 -0.4373277526126063    4    4    4    4
 -0.4344905235341119    5    5    1    1
 -0.4350169133508817    5    5    2    2
 -0.4360907290610336    5    5    3    3
 -0.4385043122557687    5    5    4    4
 -0.4396840372425108    5    5    5    5
 -0.4358844354908976    6    6    1    1
 -0.436412514046592    6    6    2    2
 -0.4374897747215399    6    6    3    3
 -0.4399111010597768    6    6    4    4
 -0.441094610784449    6    6    5    5
 -0.4425097096617387    6    6    6    6
 -0.4367088285247745    7    7    1    1
 -0.4372379058412579    7    7    2    2
 -0.4383172039511857    7    7    3    3
 -0.4407431097705957    7    7    4    4
 -0.4419288578802459    7    7    5    5
 -0.4433466331496288    7    7    6    6
 -0.4441851395201298    7    7    7    7
 -0.4380936619198955    8    8    1    1
 -0.4386244169765311    8    8    2    2
 -0.4397071376141669    8    8    3    3
 -0.4421407361459121    8    8    4    4
 -0.443330244343459    8    8    5    5
 -0.4447525154746417    8    8    6    6
 -0.445593680805869    8    8    7    7
 -0.4470066886718179    8    8    8    8
 -0.4392469292141902    9    9    1    1
 -0.4397790814662233    9    9    2    2
 -0.4408646523306685    9    9    3    3
 -0.4433046572312752    9    9    4    4
 -0.4444972967704043    9    9    5    5
 -0.4459233119840101    9    9    6    6
 -0.4467666916555712    9    9    7    7
 -0.4481834192186991    9    9    8    8
 -0.4493632474704135    9    9    9    9
 -0.4420310159467156   10   10    1    1
 -0.4425665411489642   10   10    2    2
 -0.443658992706796   10   10    3    3
 -0.4461144631344656   10   10    4    4
 -0.4473146620022929   10   10    5    5
 -0.4487497157538429   10   10    6    6
 -0.4495984410339852   10   10    7    7
 -0.4510241482669748   10   10    8    8
 -0.4522114546453733   10   10    9    9
 -0.4550777146632328   10   10   10   10
 -0.4435568006859349   11   11    1    1
 -0.4440941743923644   11   11    2    2
 -0.4451903968301914   11   11    3    3
 -0.4476543429511291   11   11    4    4
 -0.4488586846167476   11   11    5    5
 -0.4502986918286546   11   11    6    6
 -0.4511503467043084   11   11    7    7
 -0.4525809751357213   11   11    8    8
 -0.4537723798101387   11   11    9    9
 -0.4566485334681188   11   11   10   10
 -0.4582247743616684   11   11   11   11
 -0.4450319391784497   12   12    1    1
 -0.4455711000306021   12   12    2    2
 -0.4466709681794449   12   12    3    3
 -0.4491431086551098   12   12    4    4
 -0.4503514556042599   12   12    5    5
 -0.4517962518534773   12   12    6    6
 -0.4526507390809009   12   12    7    7
 -0.4540861253585792   12   12    8    8
 -0.4552814922919288   12   12    9    9
 -0.4581672111847664   12   12   10   10
 -0.4597486941884855   12   12   11   11
 -0.4612776821211066   12   12   12   12
 -0.446084516469437   13   13    1    1
 -0.4466249525299941   13   13    2    2
 -0.4477274220567036   13   13    3    3
 -0.4502054095709644   13   13    4    4
 -0.4514166144690533   13   13    5    5
 -0.4528648279105847   13   13    6    6
 -0.4537213361476749   13   13    7    7
 -0.4551601173614616   13   13    8    8
 -0.4563583115437738   13   13    9    9
 -0.4592508556594941   13   13   10   10
 -0.4608360791432759   13   13   11   11
 -0.4623686833960629   13   13   12   12
 -0.4634622650771999   13   13   13   13
 -0.4472472441929463   14   14    1    1
 -0.4477890889103098   14   14    2    2
 -0.4488944320446781   14   14    3    3
 -0.4513788784802307   14   14    4    4
 -0.4525932404067792   14   14    5    5
 -0.4540452286440183   14   14    6    6
 -0.454903969386017   14   14    7    7
 -0.4563465008102315   14   14    8    8
 -0.4575478181083267   14   14    9    9
 -0.4604479016949559   14   14   10   10
 -0.4620372570937101   14   14   11   11
 -0.4635738561084493   14   14   12   12
 -0.4646702882309076   14   14   13   13
 -0.4658814601197981   14   14   14   14
 -0.4477297074175876   15   15    1    1
 -0.4482721366441973   15   15    2    2
 -0.4493786721557572   15   15    3    3
 -0.4518657986615714   15   15    4    4
 -0.453081470568178   15   15    5    5
 -0.4545350251223395   15   15    6    6
 -0.4553946922218126   15   15    7    7
 -0.4568387797615126   15   15    8    8
 -0.4580413929679114   15   15    9    9
 -0.4609446049889738   15   15   10   10
 -0.4625356748880201   15   15   11   11
 -0.4640739314926612   15   15   12   12
 -0.4651715463796514   15   15   13   13
 -0.4663840248073807   15   15   14   14
 -0.4668871316312938   15   15   15   15
 -0.4483281047870196   16   16    1    1
 -0.4488712589783055   16   16    2    2
 -0.4499792733909262   16   16    3    3
 -0.4524697239780642   16   16    4    4
 -0.4536870206481363   16   16    5    5
 -0.4551425178994365   16   16    6    6
 -0.4560033339566901   16   16    7    7
 -0.4574493515407242   16   16    8    8
 -0.4586535720574426   16   16    9    9
 -0.4615606642642679   16   16   10   10
 -0.4631538606517432   16   16   11   11
 -0.4646941731590651   16   16   12   12
 -0.4657932550245696   16   16   13   13
 -0.4670073539476327   16   16   14   14
 -0.4675111331812496   16   16   15   15
 -0.4681359687184969   16   16   16   16
 -0.4499616428239932   17   17    1    1
 -0.4505067760637079   17   17    2    2
 -0.4516188276617498   17   17    3    3
 -0.4541183525088324   17   17    4    4
 -0.4553400845475365   17   17    5    5
 -0.4568008850802892   17   17    6    6
 -0.4576648376256579   17   17    7    7
 -0.4591161239508225   17   17    8    8
 -0.4603247321916161   17   17    9    9
 -0.4632424167428563   17   17   10   10
 -0.4648414181353526   17   17   11   11
 -0.466387342958839   17   17   12   12
 -0.4674904294629417   17   17   13   13
 -0.4687089521032563   17   17   14   14
 -0.4692145669178497   17   17   15   15
 -0.4698416791194552   17   17   16   16
 -0.4715536044839419   17   17   17   17
 -0.4511014268487038   18   18    1    1
 -0.4516479409486939   18   18    2    2
 -0.4527628094505015   18   18    3    3
 -0.4552686657672448   18   18    4    4
 -0.456493492537872   18   18    5    5
 -0.4579579933796111   18   18    6    6
 -0.4588241343766514   18   18    7    7
 -0.4602790969106552   18   18    8    8
 -0.4614907666398823   18   18    9    9
 -0.4644158418882935   18   18   10   10
 -0.4660188936621316   18   18   11   11
 -0.4675687344203324   18   18   12   12
 -0.4686746151189964   18   18   13   13
 -0.4698962243616055   18   18   14   14
 -0.4704031199335646   18   18   15   15
 -0.4710318206538371   18   18   16   16
 -0.4727480824439127   18   18   17   17
 -0.4739455860993363   18   18   18   18
 -0.4521028528451374   19   19    1    1
 -0.4526505801832033   19   19    2    2
 -0.4537679236457046   19   19    3    3
 -0.4562793428569758   19   19    4    4
 -0.4575068886909803   19   19    5    5
 -0.4589746406623489   19   19    6    6
 -0.4598427044555928   19   19    7    7
 -0.4613008969445884   19   19    8    8
 -0.46251525652912   19   19    9    9
 -0.4654468253202711   19   19   10   10
 -0.4670534358009198   19   19   11   11
 -0.4686067171397377   19   19   12   12
 -0.4697150528465545   19   19   13   13
 -0.4709393740097655   19   19   14   14
 -0.4714473948683519   19   19   15   15
 -0.4720774912775046   19   19   16   16
 -0.4737975630958154   19   19   17   17
 -0.4749977251584619   19   19   18   18
 -0.4760521999215844   19   19   19   19
 -0.452153065576244   20   20    1    1
 -0.4527008537475592   20   20    2    2
 -0.4538183213076336   20   20    3    3
 -0.4563300194492782   20   20    4    4
 -0.4575577016204647   20   20    5    5
 -0.4590256166074714   20   20    6    6
 -0.4598937768120818   20   20    7    7
 -0.461352131254993   20   20    8    8
 -0.4625666257121779   20   20    9    9
 -0.4654985200975484   20   20   10   10
 -0.4671053090161333   20   20   11   11
 -0.4686587628698949   20   20   12   12
 -0.4697672216738399   20   20   13   13
 -0.4709916788160852   20   20   14   14
 -0.4714997560979272   20   20   15   15
 -0.4721299224886368   20   20   16   16
 -0.4738501853464493   20   20   17   17
 -0.4750504807049035   20   20   18   18
 -0.476105072583097   20   20   19   19
 -0.4761579511169034   20   20   20   20
 -0.4526169654409741   21   21    1    1
 -0.4531653156318308   21   21    2    2
 -0.4542839296909327   21   21    3    3
 -0.4567982047838729   21   21    4    4
 -0.45802714653204   21   21    5    5
 -0.4594965675700188   21   21    6    6
 -0.4603656184893719   21   21    7    7
 -0.4618254691743311   21   21    8    8
 -0.4630412096781698   21   21    9    9
 -0.4659761121276503   21   21   10   10
 -0.4675845495790414   21   21   11   11
 -0.4691395972449154   21   21   12   12
 -0.470249193305087   21   21   13   13
 -0.4714749067154988   21   21   14   14
 -0.4719835052743159   21   21   15   15
 -0.4726143182029475   21   21   16   16
 -0.4743363460155238   21   21   17   17
 -0.4755378728526448   21   21   18   18
 -0.4765935467206928   21   21   19   19
 -0.4766464795068012   21   21   20   20
 -0.4771355091169079   21   21   21   21
 -0.4543796268268495   22   22    1    1
 -0.4549301125004236   22   22    2    2
 -0.4560530828650956   22   22    3    3
 -0.4585771494947173   22   22    4    4
 -0.459810877206139   22   22    5    5
 -0.4612860207245394   22   22    6    6
 -0.4621584560563535   22   22    7    7
 -0.4636239919511656   22   22    8    8
 -0.4648444670076283   22   22    9    9
 -0.4677907990755588   22   22   10   10
 -0.4694055003897822   22   22   11   11
 -0.4709666039985024   22   22   12   12
 -0.4720805212447507   22   22   13   13
 -0.4733110080460508   22   22   14   14
 -0.4738215872797187   22   22   15   15
 -0.4744548568321093   22   22   16   16
 -0.4761835908712797   22   22   17   17
 -0.477389796907639   22   22   18   18
 -0.4784495819683849   22   22   19   19
 -0.4785027208947515   22   22   20   20
 -0.478993654970833   22   22   21   21
 -0.4808590371464079   22   22   22   22
 -0.4561144543949651   23   23    1    1
 -0.4566670418302953   23   23    2    2
 -0.457794299711026   23   23    3    3
 -0.4603280032612188   23   23    4    4
 -0.461566441361749   23   23    5    5
 -0.463047216998078   23   23    6    6
 -0.4639229832998028   23   23    7    7
 -0.4653941146305067   23   23    8    8
 -0.4666192494772617   23   23    9    9
 -0.4695768306809247   23   23   10   10
 -0.4711976969466311   23   23   11   11
 -0.4727647608700686   23   23   12   12
 -0.4738829310674471   23   23   13   13
 -0.4751181158840168   23   23   14   14
 -0.4756306445161129   23   23   15   15
 -0.4762663319002297   23   23   16   16
 -0.4780016662693711   23   23   17   17
 -0.4792124776167107   23   23   18   18
 -0.4802763089511695   23   23   19   19
 -0.4803296507626765   23   23   20   20
 -0.4808224592317084   23   23   21   21
 -0.4826949634616893   23   23   22   22
 -0.4845378993685032   23   23   23   23
 -0.456999663440308   24   24    1    1
 -0.4575533233156615   24   24    2    2
 -0.4586827689342788   24   24    3    3
 -0.4612213897969558   24   24    4    4
 -0.4624622314095828   24   24    5    5
 -0.4639458808771942   24   24    6    6
 -0.464823346831812   24   24    7    7
 -0.4662973332765081   24   24    8    8
 -0.4675248458169268   24   24    9    9
 -0.4704881669782004   24   24   10   10
 -0.4721121789575886   24   24   11   11
 -0.4736822841772322   24   24   12   12
 -0.4748026244754777   24   24   13   13
 -0.4760402064902984   24   24   14   14
 -0.4765537298178634   24   24   15   15
 -0.4771906509191252   24   24   16   16
 -0.4789293531571543   24   24   17   17
 -0.4801425143996718   24   24   18   18
 -0.4812084103762634   24   24   19   19
 -0.4812618557114662   24   24   20   20
 -0.4817556206038481   24   24   21   21
 -0.4836317589166031   24   24   22   22
 -0.4854782715211494   24   24   23   23
 -0.4864204687111903   24   24   24   24
 -0.4579766170022858   25   25    1    1
 -0.4585314604671047   25   25    2    2
 -0.4596633205643496   25   25    3    3
 -0.4622073683778379   25   25    4    4
 -0.4634508626064958   25   25    5    5
 -0.464937683753975   25   25    6    6
 -0.4658170255162977   25   25    7    7
 -0.4672941629836808   25   25    8    8
 -0.4685242996458324   25   25    9    9
 -0.4714939556633332   25   25   10   10
 -0.4731214393833263   25   25   11   11
 -0.4746949011041005   25   25   12   12
 -0.4758176364160244   25   25   13   13
 -0.4770578640786526   25   25   14   14
 -0.4775724851935557   25   25   15   15
 -0.4782107678764297   25   25   16   16
 -0.4799531870347994   25   25   17   17
 -0.4811689417194832   25   25   18   18
 -0.4822371163211032   25   25   19   19
 -0.4822906759093673   25   25   20   20
 -0.4827854963503829   25   25   21   21
 -0.4846656453882086   25   25   22   22
 -0.4865161053853037   25   25   23   23
 -0.4874603167626066   25   25   24   24
 -0.488502387754955   25   25   25   25
 -0.4584679441697775   26   26    1    1
 -0.4590233828826022   26   26    2    2
 -0.4601564572637099   26   26    3    3
 -0.4627032343864245   26   26    4    4
 -0.4639480626624429   26   26    5    5
 -0.4654364789036361   26   26    6    6
 -0.4663167640427195   26   26    7    7
 -0.4677954862149562   26   26    8    8
 -0.4690269425941836   26   26    9    9
 -0.4719997845225485   26   26   10   10
 -0.4736290142420895   26   26   11   11
 -0.4752041640064486   26   26   12   12
 -0.4763281038129695   26   26   13   13
 -0.477569662018516   26   26   14   14
 -0.4780848352300225   26   26   15   15
 -0.4787238026762908   26   26   16   16
 -0.4804680911394194   26   26   17   17
 -0.4816851501118842   26   26   18   18
 -0.4827544706741971   26   26   19   19
 -0.48280808772234   26   26   20   20
 -0.4833034390173701   26   26   21   21
 -0.4851856051195325   26   26   22   22
 -0.4870380503299226   26   26   23   23
 -0.4879832746775047   26   26   24   24
 -0.4890264636260323   26   26   25   25
 -0.4895511017369791   26   26   26   26
 -0.459989998245573   27   27    1    1
 -0.4605472809428408   27   27    2    2
 -0.4616841169838461   27   27    3    3
 -0.4642393490760936   27   27    4    4
 -0.4654883100204377   27   27    5    5
 -0.4669816676103887   27   27    6    6
 -0.4678648751818925   27   27    7    7
 -0.4693485065198361   27   27    8    8
 -0.4705840511744272   27   27    9    9
 -0.4735667625521859   27   27   10   10
 -0.4752014011029585   27   27   11   11
 -0.4767817801601162   27   27   12   12
 -0.4779094513009325   27   27   13   13
 -0.4791551313185951   27   27   14   14
 -0.479672014838306   27   27   15   15
 -0.480313103573572   27   27   16   16
 -0.4820631828480288   27   27   17   17
 -0.4832842822983353   27   27   18   18
 -0.4843571528661413   27   27   19   19
 -0.4844109479159256   27   27   20   20
 -0.4849079437129698   27   27   21   21
 -0.4867963583623285   27   27   22   22
 -0.4886549534504113   27   27   23   23
 -0.4896033158201584   27   27   24   24
 -0.4906499680206127   27   27   25   25
 -0.4911763478620015   27   27   26   26
 -0.4928069895932385   27   27   27   27
 -0.4604159962590781   28   28    1    1
 -0.4609737950573979   28   28    2    2
 -0.4621116839254146   28   28    3    3
 -0.4646692824251917   28   28    4    4
 -0.4659194000357312   28   28    5    5
 -0.4674141406282891   28   28    6    6
 -0.4682981661407752   28   28    7    7
 -0.4697831714738169   28   28    8    8
 -0.4710198603697403   28   28    9    9
 -0.4740053340447808   28   28   10   10
 -0.4756414864388502   28   28   11   11
 -0.4772233290894371   28   28   12   12
 -0.4783520445696253   28   28   13   13
 -0.4795988782150081   28   28   14   14
 -0.4801162404219805   28   28   15   15
 -0.4807579228713029   28   28   16   16
 -0.4825096228990309   28   28   17   17
 -0.4837318532129259   28   28   18   18
 -0.4848057173691412   28   28   19   19
 -0.4848595622386704   28   28   20   20
 -0.4853570183049009   28   28   21   21
 -0.4872471818203054   28   28   22   22
 -0.4891074981584555   28   28   23   23
 -0.4900567388092242   28   28   24   24
 -0.4911043603171851   28   28   25   25
 -0.4916312276404053   28   28   26   26
 -0.4932633795134734   28   28   27   27
 -0.4937201920976796   28   28   28   28
 -0.4611557447139488   29   29    1    1
 -0.4617144397252641   29   29    2    2
 -0.4628541568345643   29   29    3    3
 -0.4654158646171502   29   29    4    4
 -0.4666679907864243   29   29    5    5
 -0.4681651329724386   29   29    6    6
 -0.4690505788450169   29   29    7    7
 -0.4705379701299141   29   29    8    8
 -0.4717766460087125   29   29    9    9
 -0.4747669164318158   29   29   10   10
 -0.4764056976250913   29   29   11   11
 -0.4779900818156467   29   29   12   12
 -0.4791206107982746   29   29   13   13
 -0.4803694477260588   29   29   14   14
 -0.4808876411767246   29   29   15   15
 -0.4815303546145535   29   29   16   16
 -0.4832848690913872   29   29   17   17
 -0.4845090631576139   29   29   18   18
 -0.4855846526868762   29   29   19   19
 -0.4856385840687319   29   29   20   20
 -0.4861368393955428   29   29   21   21
 -0.4880300398287592   29   29   22   22
 -0.4898933451293865   29   29   23   23
 -0.4908441109211373   29   29   24   24
 -0.4918934156381919   29   29   25   25
 -0.492421129476936   29   29   26   26
 -0.49405590372159   29   29   27   27
 -0.4945134502646639   29   29   28   28
 -0.4953079829562261   29   29   29   29
 -0.461528030272106   30   30    1    1
 -0.4620871763112714   30   30    2    2
 -0.4632278135006639   30   30    3    3
 -0.4657915893195319   30   30    4    4
 -0.4670447263153979   30   30    5    5
 -0.4685430771265258   30   30    6    6
 -0.4694292378090456   30   30    7    7
 -0.4709178298472697   30   30    8    8
 -0.4721575056944003   30   30    9    9
 -0.4751501901273177   30   30   10   10
 -0.4767902942891957   30   30   11   11
 -0.4783759575342994   30   30   12   12
 -0.479507399179554   30   30   13   13
 -0.4807572442785647   30   30   14   14
 -0.4812758560606514   30   30   15   15
 -0.481919088353409   30   30   16   16
 -0.4836750192289513   30   30   17   17
 -0.4849002015725148   30   30   18   18
 -0.4859766594124352   30   30   19   19
 -0.4860306343324553   30   30   20   20
 -0.4865292918948765   30   30   21   21
 -0.488424020686328   30   30   22   22
 -0.4902888302112043   30   30   23   23
 -0.491240363544892   30   30   24   24
 -0.4922905153531879   30   30   25   25
 -0.4928186552090494   30   30   26   26
 -0.4944547491875441   30   30   27   27
 -0.4949126651025105   30   30   28   28
 -0.4957078392108825   30   30   29   29
 -0.4961080182647464   30   30   30   30
 -0.4617108213292402   31   31    1    1
 -0.4622701888216845   31   31    2    2
 -0.4634112777675555   31   31    3    3
 -0.4659760689858388   31   31    4    4
 -0.4672297022944339   31   31    5    5
 -0.4687286465367529   31   31    6    6
 -0.4696151581887422   31   31    7    7
 -0.4711043397931344   31   31    8    8
 -0.4723445066216221   31   31    9    9
 -0.4753383763258887   31   31   10   10
 -0.4769791300612573   31   31   11   11
 -0.4785654213181865   31   31   12   12
 -0.4796973110779669   31   31   13   13
 -0.4809476511859302   31   31   14   14
 -0.4814664683674503   31   31   15   15
 -0.4821099554163723   31   31   16   16
 -0.483866581739298   31   31   17   17
 -0.4850922493239759   31   31   18   18
 -0.4861691335017428   31   31   19   19
 -0.4862231297988669   31   31   20   20
 -0.4867219848577283   31   31   21   21
 -0.4886174640683438   31   31   22   22
 -0.4904830121626723   31   31   23   23
 -0.491434922357076   31   31   24   24
 -0.4924854900845504   31   31   25   25
 -0.4930138391134983   31   31   26   26
 -0.4946505810772252   31   31   27   27
 -0.495108678352648   31   31   28   28
 -0.495904167394689   31   31   29   29
 -0.4963045049419649   31   31   30   30
 -0.4965010694389583   31   31   31   31
 -0.4625256488523145   32   32    1    1
 -0.4630860035168313   32   32    2    2
 -0.4642291062571303   32   32    3    3
 -0.466798423820431   32   32    4    4
 -0.4680542695418103   32   32    5    5
 -0.4695558591217904   32   32    6    6
 -0.470443935290053   32   32    7    7
 -0.4719357450029974   32   32    8    8
 -0.4731781004786174   32   32    9    9
 -0.4761772537658602   32   32   10   10
 -0.4778209031043647   32   32   11   11
 -0.4794099938490167   32   32   12   12
 -0.4805438811684962   32   32   13   13
 -0.4817964278774013   32   32   14   14
 -0.4823161606677818   32   32   15   15
 -0.4829607833430179   32   32   16   16
 -0.4847205097610888   32   32   17   17
 -0.4859483404046251   32   32   18   18
 -0.4870271250682085   32   32   19   19
 -0.4870812166580288   32   32   20   20
 -0.487580952096585   32   32   21   21
 -0.4894797764500018   32   32   22   22
 -0.4913486168646803   32   32   23   23
 -0.4923022069907426   32   32   24   24
 -0.4933546287607468   32   32   25   25
 -0.4938839102203649   32   32   26   26
 -0.4955235407072509   32   32   27   27
 -0.4959824464330089   32   32   28   28
 -0.4967793393545688   32   32   29   29
 -0.4971803834177785   32   32   30   30
 -0.4973772948119093   32   32   31   31
 -0.4982550665479025   32   32   32   32
 -0.4638924026227997   33   33    1    1
 -0.4644544131238142   33   33    2    2
 -0.4656008937091782   33   33    3    3
 -0.4681778035529848   33   33    4    4
 -0.4694373602726169   33   33    5    5
 -0.470943387018893   33   33    6    6
 -0.4718340874339504   33   33    7    7
 -0.4733303054138851   33   33    8    8
 -0.4745763320243594   33   33    9    9
 -0.4775843477478234   33   33   10   10
 -0.479232854036286   33   33   11   11
 -0.4808266405113743   33   33   12   12
 -0.48196387844454   33   33   13   13
 -0.483220126403184   33   33   14   14
 -0.4837413949932606   33   33   15   15
 -0.4843879225152312   33   33   16   16
 -0.4861528488886405   33   33   17   17
 -0.4873843077464518   33   33   18   18
 -0.4884662801965073   33   33   19   19
 -0.4885205316258619   33   33   20   20
 -0.4890217437723511   33   33   21   21
 -0.4909261791126418   33   33   22   22
 -0.4928005419122725   33   33   23   23
 -0.4937569498775261   33   33   24   24
 -0.4948124815321947   33   33   25   25
 -0.4953433270076298   33   33   26   26
 -0.4969878025688499   33   33   27   27
 -0.4974480643515802   33   33   28   28
 -0.498247312075318   33   33   29   29
 -0.4986495412154782   33   33   30   30
 -0.4988470344787249   33   33   31   31
 -0.4997274000121276   33   33   32   32
 -0.5012040841914289   33   33   33   33
 -0.4642686834110585   34   34    1    1
 -0.4648311497801862   34   34    2    2
 -0.4659785603195997   34   34    3    3
 -0.4685575603930842   34   34    4    4
 -0.4698181387871233   34   34    5    5
 -0.4713253871290281   34   34    6    6
 -0.4722168100251012   34   34    7    7
 -0.4737142416444008   34   34    8    8
 -0.4749612789544955   34   34    9    9
 -0.4779717345940287   34   34   10   10
 -0.4796215780487008   34   34   11   11
 -0.4812166573046748   34   34   12   12
 -0.482354817694823   34   34   13   13
 -0.483612084644012   34   34   14   14
 -0.4841337760548867   34   34   15   15
 -0.4847808279999439   34   34   16   16
 -0.4865471859723259   34   34   17   17
 -0.4877796437132985   34   34   18   18
 -0.4888624937923993   34   34   19   19
 -0.4889167892271536   34   34   20   20
 -0.4894184079258961   34   34   21   21
 -0.4913243880261936   34   34   22   22
 -0.4932002711928485   34   34   23   23
 -0.4941574549370133   34   34   24   24
 -0.4952138427735915   34   34   25   25
 -0.4957451188380011   34   34   26   26
 -0.4973909282959545   34   34   27   27
 -0.497851563414539   34   34   28   28
 -0.498651459438533   34   34   29   29
 -0.4990540148420618   34   34   30   30
 -0.4992516682996129   34   34   31   31
 -0.5001327479310154   34   34   32   32
 -0.5016106299050724   34   34   33   33
 -0.5020175053834215   34   34   34   34
 -0.4649780052516003   35   35    1    1
 -0.465541330971562   35   35    2    2
 -0.4666904945548156   35   35    3    3
 -0.4692734348920832   35   35    4    4
 -0.4705359392307716   35   35    5    5
 -0.4720454903861253   35   35    6    6
 -0.4729382752214201   35   35    7    7
 -0.4744379946559228   35   35    8    8
 -0.4756869372222444   35   35    9    9
 -0.4787019923146622   35   35   10   10
 -0.4803543564433269   35   35   11   11
 -0.481951872703118   35   35   12   12
 -0.4830917720044864   35   35   13   13
 -0.4843509598390125   35   35   14   14
 -0.4848734483036731   35   35   15   15
 -0.48552148883162   35   35   16   16
 -0.4872905454919229   35   35   17   17
 -0.4885248862140753   35   35   18   18
 -0.489609390699856   35   35   19   19
 -0.489663769088596   35   35   20   20
 -0.4901661541735096   35   35   21   21
 -0.4920750462800679   35   35   22   22
 -0.4939537954701009   35   35   23   23
 -0.4949124416246317   35   35   24   24
 -0.4959704434381832   35   35   25   25
 -0.4965025312000632   35   35   26   26
 -0.4981508551687635   35   35   27   27
 -0.4986121940577332   35   35   28   28
 -0.4994133121837993   35   35   29   29
 -0.4998164826220051   35   35   30   30
 -0.5000144380596795   35   35   31   31
 -0.5008968638275934   35   35   32   32
 -0.5023770037483941   35   35   33   33
 -0.5027845008617435   35   35   34   34
 -0.5035526681758232   35   35   35   35
 -0.4664652904496554   36   36    1    1
 -0.4670304180312008   36   36    2    2
 -0.4681832573452809   36   36    3    3
 -0.4707744595118988   36   36    4    4
 -0.4720410021147507   36   36    5    5
 -0.4735553817416959   36   36    6    6
 -0.4744510222511422   36   36    7    7
 -0.4759555387093558   36   36    8    8
 -0.4772084761609647   36   36    9    9
 -0.4802331752510761   36   36   10   10
 -0.4818908246549207   36   36   11   11
 -0.4834934507527258   36   36   12   12
 -0.484636996152058   36   36   13   13
 -0.4859002116425307   36   36   14   14
 -0.486424371346155   36   36   15   15
 -0.4870744847056639   36   36   16   16
 -0.4888491998955223   36   36   17   17
 -0.4900874887972976   36   36   18   18
 -0.4911754621944047   36   36   19   19
 -0.491230014518625   36   36   20   20
 -0.4917340065395486   36   36   21   21
 -0.4936490044552908   36   36   22   22
 -0.4955337630389502   36   36   23   23
 -0.4964954755325759   36   36   24   24
 -0.4975568614856332   36   36   25   25
 -0.4980906511909242   36   36   26   26
 -0.4997442475118918   36   36   27   27
 -0.5002070620459309   36   36   28   28
 -0.5010107426397208   36   36   29   29
 -0.5014152026645701   36   36   30   30
 -0.5016137912852963   36   36   31   31
 -0.5024990395927027   36   36   32   32
 -0.5039839139099057   36   36   33   33
 -0.5043927144492627   36   36   34   34
 -0.5051633388341349   36   36   35   35
 -0.5067791614063049   36   36   36   36
 -0.4712677347433167   37   37    1    1
 -0.4718386805363877   37   37    2    2
 -0.4730033887862681   37   37    3    3
 -0.4756212684020201   37   37    4    4
 -0.4769008505609124   37   37    5    5
 -0.4784308213238902   37   37    6    6
 -0.4793356828059187   37   37    7    7
 -0.4808556888549493   37   37    8    8
 -0.4821215257921962   37   37    9    9
 -0.485177365353384   37   37   10   10
 -0.4868520809121674   37   37   11   11
 -0.4884712066782562   37   37   12   12
 -0.4896265253288677   37   37   13   13
 -0.4909027461214456   37   37   14   14
 -0.491432302256121   37   37   15   15
 -0.4920891087892862   37   37   16   16
 -0.4938820953725599   37   37   17   17
 -0.4951331329473705   37   37   18   18
 -0.496232307460058   37   37   19   19
 -0.4962874214219897   37   37   20   20
 -0.4967966022397102   37   37   21   21
 -0.4987313158149047   37   37   22   22
 -0.5006354787321563   37   37   23   23
 -0.5016070924355219   37   37   24   24
 -0.5026794057759282   37   37   25   25
 -0.5032186910569387   37   37   26   26
 -0.504889311804757   37   37   27   27
 -0.5053568911971115   37   37   28   28
 -0.5061688459998525   37   37   29   29
 -0.5065774701003106   37   37   30   30
 -0.5067781032692763   37   37   31   31
 -0.5076724655574427   37   37   32   32
 -0.509172627241868   37   37   33   33
 -0.5095856365441439   37   37   34   34
 -0.5103641948112478   37   37   35   35
 -0.5119966529146142   37   37   36   36
 -0.5172678605575092   37   37   37   37
 -0.4782671014190006   38   38    1    1
 -0.4788465270180567   38   38    2    2
 -0.4800285337577554   38   38    3    3
 -0.4826852946674993   38   38    4    4
 -0.4839838814474625   38   38    5    5
 -0.4855365756552757   38   38    6    6
 -0.4864548763287371   38   38    7    7
 -0.4879974578245936   38   38    8    8
 -0.4892820952360132   38   38    9    9
 -0.4923833207636356   38   38   10   10
 -0.4940829095471472   38   38   11   11
 -0.4957260829067701   38   38   12   12
 -0.4968985605909135   38   38   13   13
 -0.4981937360808488   38   38   14   14
 -0.4987311572936713   38   38   15   15
 -0.499397718854439   38   38   16   16
 -0.5012173352483613   38   38   17   17
 -0.5024869534941271   38   38   18   18
 -0.5036024531759015   38   38   19   19
 -0.5036583857018894   38   38   20   20
 -0.5041751289793004   38   38   21   21
 -0.5061385773239834   38   38   22   22
 -0.5080710212659806   38   38   23   23
 -0.5090570655786911   38   38   24   24
 -0.510145305140452   38   38   25   25
 -0.5106925999989197   38   38   26   26