 &FCI NORB=  42,NELEC=66,MS2=0,
  ORBSYM=1,1,1,1,1,1,1,1,1,1,1,1,1,1,1,1,1,1,1,1,1,1,1,1,1,1,1,1,1,1,1,1,1,1,1,1,1,1,1,1,1,1,
  ISYM=1,
 &END
 -0.4612150120559588    1    1    1    1
 -0.4682148148272613    2    2    1    1
 -0.4753208527330593    2    2    2    2
 -0.4693863488802316    3    3    1    1
 -0.4765101670123803    3    3    2    2
 -0.4777024571099235    3    3    3    3
 -0.469650195934079    4    4    1    1
 -0.4767780184400889    4    4    2    2
 -0.4779709787365639    4    4    3    3
 -0.4782396513020635    4    4    4    4
 -0.4697378682196066    5    5    1    1
 -0.4768670213169702    5    5    2    2
 -0.4780602043101599    5    5    3    3
 -0.4783289270303025    5    5    4    4
 -0.4784182194241518    5    5    5    5
 -0.4698050410134921    6    6    1    1
 -0.4769352135839788    6    6    2    2
 -0.4781285672030446    6    6    3    3
 -0.4783973283506956    6    6    4    4
 -0.4784866335134101    6    6    5    5
 -0.478555057385924    6    6    6    6
 -0.4716832529776971    7    7    1    1
 -0.4788419309371423    7    7    2    2
 -0.480040055409752    7    7    3    3
 -0.4803098910252331    7    7    4    4
 -0.4803995532169501    7    7    5    5
 -0.4804682506381165    7    7    6    6
 -0.4823890925576124    7    7    7    7
 -0.4721840263351382    8    8    1    1
 -0.4793503044694337    8    8    2    2
 -0.4805497009584039    8    8    3    3
 -0.4808198230510629    8    8    4    4
 -0.4809095804347047    8    8    5    5
 -0.4809783507900659    8    8    6    6
 -0.4829012320154965    8    8    7    7
 -0.483413915197997    8    8    8    8
 -0.4814856977302556    9    9    1    1
 -0.488793146172341    9    9    2    2
 -0.4900161698731411    9    9    3    3
 -0.4902916131685565    9    9    4    4
 -0.4903831387053787    9    9    5    5
 -0.490453263785194    9    9    6    6
 -0.4924140243294775    9    9    7    7
 -0.4929368069863936    9    9    8    8
 -0.5026472926051754    9    9    9    9
 -0.4816328150061968   10   10    1    1
 -0.4889424962288486   10   10    2    2
 -0.4901658936228157   10   10    3    3
 -0.4904414210795415   10   10    4    4
 -0.4905329745818624   10   10    5    5
 -0.490603121088297   10   10    6    6
 -0.4925644807401998   10   10    7    7
 -0.4930874231326194   10   10    8    8
 -0.5028008757765882   10   10    9    9
 -0.5029545058751224   10   10   10   10
 -0.4817852777744564   11   11    1    1
 -0.4890972729055455   11   11    2    2
 -0.4903210575707854   11   11    3    3
 -0.4905966722468151   11   11    4    4
 -0.4906882547307584   11   11    5    5
 -0.4907584234423464   11   11    6    6
 -0.492720403970387   11   11    7    7
 -0.4932435119022848   11   11    8    8
 -0.5029600393780203   11   11    9    9
 -0.5031137181087684   11   11   10   10
 -0.5032729807416753   11   11   11   11
 -0.4818151887697399   12   12    1    1
 -0.4891276378562776   12   12    2    2
 -0.4903514984985535   12   12    3    3
 -0.490627130285752   12   12    4    4
 -0.4907187184554715   12   12    5    5
 -0.4907888915233903   12   12    6    6
 -0.4927509938583707   12   12    7    7
 -0.4932741342667255   12   12    8    8
 -0.5029912649800875   12   12    9    9
 -0.5031449532517743   12   12   10   10
 -0.5033042257722889   12   12   11   11
 -0.5033354727427086   12   12   12   12
 -0.4818698001675548   13   13    1    1
 -0.4891830780844726   13   13    2    2
 -0.4904070774453733   13   13    3    3
 -0.4906827404740884   13   13    4    4
 -0.4907743390248795   13   13    5    5
 -0.4908445200465727   13   13    6    6
 -0.4928068447762672   13   13    7    7
 -0.4933300444800315   13   13    8    8
 -0.5030482765826885   13   13    9    9
 -0.5032019822741901   13   13   10   10
 -0.5033612728474668   13   13   11   11
 -0.503392523359578   13   13   12   12
 -0.5034495804428559   13   13   13   13
 -0.4825372758772115   14   14    1    1
 -0.4898606839898084   14   14    2    2
 -0.4910863788083654   14   14    3    3
 -0.4913624236795941   14   14    4    4
 -0.4914541491107328   14   14    5    5
 -0.4915244273456715   14   14    6    6
 -0.493489470245484   14   14    7    7
 -0.4940133946742538   14   14    8    8
 -0.5037450882635344   14   14    9    9
 -0.5038990068648624   14   14   10   10
 -0.504058518084024   14   14   11   11
 -0.5040898118836741   14   14   12   12
 -0.5041469480011999   14   14   13   13
 -0.5048452815381249   14   14   14   14
 -0.483329483553077   15   15    1    1
 -0.4906649149028626   15   15    2    2
 -0.4918926220112303   15   15    3    3
 -0.4921691200803295   15   15    4    4
 -0.4922609961020945   15   15    5    5
 -0.4923313897166318   15   15    6    6
 -0.4942996587341899   15   15    7    7
 -0.4948244433181743   15   15    8    8
 -0.5045721139578218   15   15    9    9
 -0.5047262852556844   15   15   10   10
 -0.5048860583530853   15   15   11   11
 -0.5049174035294673   15   15   12   12
 -0.504974633450463   15   15   13   13
 -0.5056741134795161   15   15   14   14
 -0.5065043061593597   15   15   15   15
 -0.4836454925851111   16   16    1    1
 -0.4909857199646017   16   16    2    2
 -0.4922142297687455   16   16    3    3
 -0.4924909086169822   16   16    4    4
 -0.4925828447088519   16   16    5    5
 -0.492653284347931   16   16    6    6
 -0.4946228402532296   16   16    7    7
 -0.4951479679502954   16   16    8    8
 -0.504902011782699   16   16    9    9
 -0.5050562838803768   16   16   10   10
 -0.5052161614401446   16   16   11   11
 -0.5052475271105358   16   16   12   12
 -0.5053047944494267   16   16   13   13
 -0.5060047318104125   16   16   14   14
 -0.5068354672843419   16   16   15   15
 -0.5071668449280968   16   16   16   16
 -0.4836575142115009   17   17    1    1
 -0.4909979240417173   17   17    2    2
 -0.4922264643820413   17   17    3    3
 -0.4925031501074841   17   17    4    4
 -0.4925950884845429   17   17    5    5
 -0.4926655298744891   17   17    6    6
 -0.494635134735615   17   17    7    7
 -0.4951602754854003   17   17    8    8
 -0.5049145617670205   17   17    9    9
 -0.5050688376993283   17   17   10   10
 -0.505228719233057   17   17   11   11
 -0.5052600856830821   17   17   12   12
 -0.5053173544454258   17   17   13   13
 -0.5060173092042487   17   17   14   14
 -0.5068480653271692   17   17   15   15
 -0.5071794512077386   17   17   16   16
 -0.5071920578007256   17   17   17   17
 -0.4838584134979912   18   18    1    1
 -0.4912018723516469   18   18    2    2
 -0.4924309229970329   18   18    3    3
 -0.4927077236508356   18   18    4    4
 -0.4927997002168065   18   18    5    5
 -0.4928701708663518   18   18    6    6
 -0.4948405938522865   18   18    7    7
 -0.4953659527324613   18   18    8    8
 -0.505124290701684   18   18    9    9
 -0.505278630716372   18   18   10   10
 -0.5054385786609081   18   18   11   11
 -0.5054699581397754   18   18   12   12
 -0.5055272506901367   18   18   13   13
 -0.5062274961927349   18   18   14   14
 -0.50705859739106   18   18   15   15
 -0.5073901209210714   18   18   16   16
 -0.5074027327505231   18   18   17   17
 -0.5076134952094481   18   18   18   18
 -0.4845923182251987   19   19    1    1
 -0.4919469154594558   19   19    2    2
 -0.4931778302991051   19   19    3    3
 -0.4934550507974379   19   19    4    4
 -0.4935471668712373   19   19    5    5
 -0.4936177444089578   19   19    6    6
 -0.4955911560847729   19   19    7    7
 -0.4961173118165779   19   19    8    8
 -0.5058904509965794   19   19    9    9
 -0.5060450251104651   19   19   10   10
 -0.5062052156601712   19   19   11   11
 -0.5062366427346722   19   19   12   12
 -0.5062940221849869   19   19   13   13
 -0.5069953298030102   19   19   14   14
 -0.5078276915955116   19   19   15   15
 -0.508159717972387   19   19   16   16
 -0.5081723489311564   19   19   17   17
 -0.5083834310694765   19   19   18   18
 -0.5091545347495768   19   19   19   19
 -0.4852918148488937   20   20    1    1
 -0.4926570282562524   20   20    2    2
 -0.4938897198900067   20   20    3    3
 -0.4941673405490423   20   20    4    4
 -0.4942595895900395   20   20    5    5
 -0.4943302690046315   20   20    6    6
 -0.4963065292497542   20   20    7    7
 -0.4968334444739079   20   20    8    8
 -0.5066206909304843   20   20    9    9
 -0.5067754881681521   20   20   10   10
 -0.5069359099488218   20   20   11   11
 -0.5069673823875014   20   20   12   12
 -0.5070248446635858   20   20   13   13
 -0.5077271646012282   20   20   14   14
 -0.5085607278866994   20   20   15   15
 -0.5088932335351621   20   20   16   16
 -0.5089058827263976   20   20   17   17
 -0.5091172695563885   20   20   18   18
 -0.5098894863049394   20   20   19   19
 -0.5106254987440844   20   20   20   20
 -0.4858835837225292   21   21    1    1
 -0.4932577783323496   21   21    2    2
 -0.4944919731205304   21   21    3    3
 -0.4947699323125058   21   21    4    4
 -0.4948622938427505   21   21    5    5
 -0.4949330594444082   21   21    6    6
 -0.496911729557704   21   21    7    7
 -0.4974392873066627   21   21    8    8
 -0.5072384684129374   21   21    9    9
 -0.5073934544116436   21   21   10   10
 -0.5075540718119663   21   21   11   11
 -0.5075855826283994   21   21   12   12
 -0.507643114974461   21   21   13   13
 -0.5083462913268744   21   21   14   14
 -0.5091808710663458   21   21   15   15
 -0.5095137821749607   21   21   16   16
 -0.5095264467907251   21   21   17   17
 -0.5097380913875739   21   21   18   18
 -0.510511249783648   21   21   19   19
 -0.5112481597224803   21   21   20   20
 -0.51187157997885   21   21   21   21
 -0.4864364559737637   22   22    1    1
 -0.493819041456854   22   22    2    2
 -0.4950546405979989   22   22    3    3
 -0.4953329160713416   22   22    4    4
 -0.4954253826969813   22   22    5    5
 -0.4954962288206794   22   22    6    6
 -0.4974771504029208   22   22    7    7
 -0.4980053084439044   22   22    8    8
 -0.5078156397423239   22   22    9    9
 -0.5079708020949159   22   22   10   10
 -0.5081316022569261   22   22   11   11
 -0.5081631489285652   22   22   12   12
 -0.5082207467389454   22   22   13   13
 -0.5089247232144869   22   22   14   14
 -0.5097602525970311   22   22   15   15
 -0.5100935425151391   22   22   16   16
 -0.5101062215415871   22   22   17   17
 -0.5103181069624289   22   22   18   18
 -0.5110921451120845   22   22   19   19
 -0.511829893558474   22   22   20   20
 -0.5124540231859197   22   22   21   21
 -0.5130371291375189   22   22   22   22
 -0.4899015599063702   23   23    1    1
 -0.4973367348400993   23   23    2    2
 -0.4985811357052732   23   23    3    3
 -0.4988613934589839   23   23    4    4
 -0.4989545187656583   23   23    5    5
 -0.4990258695579083   23   23    6    6
 -0.5010209021285029   23   23    7    7
 -0.5015528224748862   23   23    8    8
 -0.5114330371406907   23   23    9    9
 -0.5115893047839564   23   23   10   10
 -0.5117512503972725   23   23   11   11
 -0.5117830217899304   23   23   12   12
 -0.5118410298952151   23   23   13   13
 -0.5125500211093189   23   23   14   14
 -0.5133915023404831   23   23   15   15
 -0.5137271664313978   23   23   16   16
 -0.5137399357762089   23   23   17   17
 -0.5139533305514503   23   23   18   18
 -0.5147328825202357   23   23   19   19
 -0.5154758862780056   23   23   20   20
 -0.5161044618592855   23   23   21   21
 -0.5166917215347703   23   23   22   22
 -0.5203723472244122   23   23   23   23
 -0.4900327902664133   24   24    1    1
 -0.4974699568669655   24   24    2    2
 -0.4987146910708894   24   24    3    3
 -0.4989950238974902   24   24    4    4
 -0.4990881741497221   24   24    5    5
 -0.4991595440547713   24   24    6    6
 -0.5011551110364884   24   24    7    7
 -0.5016871738688408   24   24    8    8
 -0.5115700351564036   24   24    9    9
 -0.5117263446592198   24   24   10   10
 -0.5118883336530493   24   24   11   11
 -0.511920113556338   24   24   12   12
 -0.5119781372003046   24   24   13   13
 -0.5126873183325061   24   24   14   14
 -0.5135290249719849   24   24   15   15
 -0.5138647789775338   24   24   16   16
 -0.5138775517428804   24   24   17   17
 -0.5140910036803673   24   24   18   18
 -0.5148707644684215   24   24   19   19
 -0.5156139672552588   24   24   20   20
 -0.5162427112136303   24   24   21   21
 -0.5168301281988789   24   24   22   22
 -0.5205117398209488   24   24   23   23
 -0.5206511697567023   24   24   24   24
 -0.4902148044745204   25   25    1    1
 -0.4976547334820304   25   25    2    2
 -0.4988999300209549   25   25    3    3
 -0.4991803669723378   25   25    4    4
 -0.4992735518236204   25   25    5    5
 -0.499344948237787   25   25    6    6
 -0.5013412564383595   25   25    7    7
 -0.5018735168962525   25   25    8    8
 -0.5117600490017826   25   25    9    9
 -0.5119164165630614   25   25   10   10
 -0.5120784657249021   25   25   11   11
 -0.5121102574322864   25   25   12   12
 -0.5121683026281325   25   25   13   13
 -0.512877747173405   25   25   14   14
 -0.5137197664502633   25   25   15   15
 -0.5140556451658329   25   25   16   16
 -0.5140684226754024   25   25   17   17
 -0.5142819538959212   25   25   18   18
 -0.5150620043126394   25   25   19   19
 -0.5158054831493032   25   25   20   20
 -0.5164344606437482   25   25   21   21
 -0.5170220958148805   25   25   22   22
 -0.5207050749079385   25   25   23   23
 -0.5208445566325313   25   25   24   24
 -0.5210380153385717   25   25   25   25
 -0.4910631465044935   26   26    1    1
 -0.4985159506932904   26   26    2    2
 -0.4997633021091176   26   26    3    3
 -0.5000442243711244   26   26    4    4
 -0.5001375704836035   26   26    5    5
 -0.5002090904529511   26   26    6    6
 -0.5022088533679383   26   26    7    7
 -0.5027420349300354   26   26    8    8
 -0.5126456761898368   26   26    9    9
 -0.512802314353254   26   26   10   10
 -0.5129646439495361   26   26   11   11
 -0.5129964906741116   26   26   12   12
 -0.513054636320166   26   26   13   13
 -0.5137653085958542   26   26   14   14
 -0.5146087850305465   26   26   15   15
 -0.5149452450015756   26   26   16   16
 -0.5149580446232851   26   26   17   17
 -0.5151719453706061   26   26   18   18
 -0.5159533457048461   26   26   19   19
 -0.516698111170024   26   26   20   20
 -0.5173281771424986   26   26   21   21
 -0.5179168292466353   26   26   22   22
 -0.5216061819251739   26   26   23   23
 -0.5217459050300928   26   26   24   24
 -0.5219396985264129   26   26   25   25
 -0.5228429421235663   26   26   26   26
 -0.4923215454626577   27   27    1    1
 -0.4997934482156481   27   27    2    2
 -0.5010439960955825   27   27    3    3
 -0.5013256382492862   27   27    4    4
 -0.5014192235706156   27   27    5    5
 -0.5014909268171152   27   27    6    6
 -0.5034958143267431   27   27    7    7
 -0.5040303622204964   27   27    8    8
 -0.5139593825622591   27   27    9    9
 -0.5141164221268057   27   27   10   10
 -0.5142791677090895   27   27   11   11
 -0.5143110960441164   27   27   12   12
 -0.5143693906942672   27   27   13   13
 -0.5150818841395091   27   27   14   14
 -0.5159275220678385   27   27   15   15
 -0.5162648442515585   27   27   16   16
 -0.5162776766735927   27   27   17   17
 -0.5164921255632035   27   27   18   18
 -0.5172755283147976   27   27   19   19
 -0.518022202316774   27   27   20   20
 -0.5186538828970011   27   27   21   21
 -0.519244043481666   27   27   22   22
 -0.5229428504994277   27   27   23   23
 -0.5230829316589285   27   27   24   24
 -0.5232772217706749   27   27   25   25
 -0.5241827800208617   27   27   26   26
 -0.5255260513882231   27   27   27   27
 -0.4929671299967994   28   28    1    1
 -0.5004488307058256   28   28    2    2
 -0.5017010184375559   28   28    3    3
 -0.5019830299104986   28   28    4    4
 -0.5020767379508857   28   28    5    5
 -0.5021485352223317   28   28    6    6
 -0.5041560517543553   28   28    7    7
 -0.5046913006043355   28   28    8    8
 -0.5146333409368562   28   28    9    9
 -0.5147905864284338   28   28   10   10
 -0.5149535454200878   28   28   11   11
 -0.5149855156229538   28   28   12   12
 -0.515043886715269   28   28   13   13
 -0.5157573144579293   28   28   14   14
 -0.5166040612769279   28   28   15   15
 -0.5169418257934827   28   28   16   16
 -0.5169546750427577   28   28   17   17
 -0.5171694051406313   28   28   18   18
 -0.5179538351734911   28   28   19   19
 -0.5187014882940786   28   28   20   20
 -0.5193339972012738   28   28   21   21
 -0.519924931667459   28   28   22   22
 -0.5236285889555927   28   28   23   23
 -0.5237688538044546   28   28   24   24
 -0.5239633986901234   28   28   25   25
 -0.5248701444048981   28   28   26   26
 -0.5262151772129845   28   28   27   27
 -0.5269052066930472   28   28   28   28
 -0.4932772451969293   29   29    1    1
 -0.5007636524857081   29   29    2    2
 -0.502016627942269   29   29    3    3
 -0.5022988168226677   29   29    4    4
 -0.5023925838128019   29   29    5    5
 -0.5024644262503937   29   29    6    6
 -0.5044732056686286   29   29    7    7
 -0.5050087912323451   29   29    8    8
 -0.5149570858922637   29   29    9    9
 -0.5151144303036559   29   29   10   10
 -0.5152774918093666   29   29   11   11
 -0.5153094821240113   29   29   12   12
 -0.5153678899363467   29   29   13   13
 -0.516081766481318   29   29   14   14
 -0.5169290459708402   29   29   15   15
 -0.517267022967912   29   29   16   16
 -0.5172798803003781   29   29   17   17
 -0.5174947454804167   29   29   18   18
 -0.5182796689816276   29   29   19   19
 -0.5190277924349875   29   29   20   20
 -0.5196606992401651   29   29   21   21
 -0.5202520054507307   29   29   22   22
 -0.5239579926313688   29   29   23   23
 -0.5240983457178818   29   29   24   24
 -0.5242930129876255   29   29   25   25
 -0.5252003291169608   29   29   26   26
 -0.5265462080567527   29   29   27   27
 -0.5272366716197741   29   29   28   28
 -0.5275683450640791   29   29   29   29
 -0.5179190889209225   30   30    1    1
 -0.5257794824015651   30   30    2    2
 -0.5270950507015854   30   30    3    3
 -0.5273913364298705   30   30    4    4
 -0.5274897875840115   30   30    5    5
 -0.5275652189366346   30   30    6    6
 -0.5296743476594079   30   30    7    7
 -0.5302366885942478   30   30    8    8
 -0.5406819539227243   30   30    9    9
 -0.5408471585312655   30   30   10   10
 -0.5410183658336457   30   30   11   11
 -0.5410519542360633   30   30   12   12
 -0.541113279831852   30   30   13   13
 -0.5418628183385915   30   30   14   14
 -0.5427524239823701   30   30   15   15
 -0.5431072847429345   30   30   16   16
 -0.543120784368108   30   30   17   17
 -0.5433463832161595   30   30   18   18
 -0.5441705178556103   30   30   19   19
 -0.5449560140874706   30   30   20   20
 -0.5456205379816926   30   30   21   21
 -0.546241383108508   30   30   22   22
 -0.5501325042231306   30   30   23   23
 -0.5502798686989947   30   30   24   24
 -0.5504842606428156   30   30   25   25
 -0.5514369020785278   30   30   26   26
 -0.5528500148889851   30   30   27   27
 -0.5535749708097683   30   30   28   28
 -0.5539232131213007   30   30   29   29
 -0.5815946481727554   30   30   30   30
 -0.5239547232019732   31   31    1    1
 -0.5319067187520686   31   31    2    2
 -0.5332376181902926   31   31    3    3
 -0.5335373567210269   31   31    4    4
 -0.5336369551878923   31   31    5    5
 -0.5337132655891303   31   31    6    6
 -0.5358469733048287   31   31    7    7
 -0.5364158675494356   31   31    8    8
 -0.54698285807175   31   31    9    9
 -0.5471499879126682   31   31   10   10
 -0.547323190400562   31   31   11   11
 -0.5473571702295893   31   31   12   12
 -0.5474192104908077   31   31   13   13
 -0.548177483837415   31   31   14   14
 -0.5490774566107995   31   31   15   15
 -0.5494364527852099   31   31   16   16
 -0.5494501097299382   31   31   17   17
 -0.5496783376221208   31   31   18   18
 -0.5505120764167157   31   31   19   19
 -0.5513067265262493   31   31   20   20
 -0.5519789945320176   31   31   21   21
 -0.5526070747544507   31   31   22   22
 -0.5565435415311538   31   31   23   23
 -0.556692623337198   31   31   24   24
 -0.5568993971878636   31   31   25   25
 -0.5578631403485941   31   31   26   26
 -0.5592927210442949   31   31   27   27
 -0.5600261253287343   31   31   28   28
 -0.5603784259251969   31   31   29   29
 -0.5883723334739492   31   31   30   30
 -0.5952290033706622   31   31   31   31
 -0.5245085685824356   32   32    1    1
 -0.532468969774862   32   32    2    2
 -0.5338012760378995   32   32    3    3
 -0.5341013314066987   32   32    4    4
 -0.534201035153941   32   32    5    5
 -0.5342774262189489   32   32    6    6
 -0.5364133893664799   32   32    7    7
 -0.536982884959706   32   32    8    8
 -0.5475610452999972   32   32    9    9
 -0.5477283518052076   32   32   10   10
 -0.547901737376474   32   32   11   11
 -0.5479357531238173   32   32   12   12
 -0.5479978589645801   32   32   13   13
 -0.5487569338426397   32   32   14   14
 -0.5496578579305959   32   32   15   15
 -0.5500172335812549   32   32   16   16
 -0.5500309049620316   32   32   17   17
 -0.5502593741020895   32   32   18   18
 -0.5510939941987502   32   32   19   19
 -0.5518894842917266   32   32   20   20
 -0.5525624629171589   32   32   21   21
 -0.5531912070506407   32   32   22   22
 -0.55713183486234   32   32   23   23
 -0.5572810742550341   32   32   24   24
 -0.5574880666756199   32   32   25   25
 -0.5584528285592932   32   32   26   26
 -0.5598839203906499   32   32   27   27
 -0.5606180999187449   32   32   28   28
 -0.5609707729139076   32   32   29   29
 -0.5889942713713595   32   32   30   30
 -0.5958581890984279   32   32   31   31
 -0.5964880399058146   32   32   32   32
 -0.5249248980722047   33   33    1    1
 -0.5328916178454234   33   33    2    2
 -0.5342249816286234   33   33    3    3
 -0.5345252751668369   33   33    4    4
 -0.5346250580540833   33   33    5    5
 -0.5347015097546175   33   33    6    6
 -0.5368391683262095   33   33    7    7
 -0.537409115957446   33   33    8    8
 -0.5479956727289128   33   33    9    9
 -0.5481631120339212   33   33   10   10
 -0.5483366352302537   33   33   11   11
 -0.5483706779776492   33   33   12   12
 -0.5484328331150194   33   33   13   13
 -0.5491925105099407   33   33   14   14
 -0.5500941497077889   33   33   15   15
 -0.5504538106134281   33   33   16   16
 -0.5504674928458845   33   33   17   17
 -0.5506961433336767   33   33   18   18
 -0.5515314259113334   33   33   19   19
 -0.5523275474258048   33   33   20   20
 -0.5530010602290648   33   33   21   21
 -0.5536303034291779   33   33   22   22
 -0.5575740591203139   33   33   23   23
 -0.5577234169720076   33   33   24   24
 -0.5579305736931482   33   33   25   25
 -0.5588961013580629   33   33   26   26
 -0.5603283291207802   33   33   27   27
 -0.5610630914050142   33   33   28   28
 -0.561416044334914   33   33   29   29
 -0.5894617864877278   33   33   30   30
 -0.5963311524601372   33   33   31   31
 -0.5969615032125791   33   33   32   32
 -0.5974353423315778   33   33   33   33
 -0.5251302251175584   34   34    1    1
 -0.533100061113761   34   34    2    2
 -0.5344339464489906   34   34    3    3
 -0.5347343574485498   34   34    4    4
 -0.5348341793663804   34   34    5    5
 -0.5349106609713863   34   34    6    6
 -0.5370491556990077   34   34    7    7
 -0.5376193262681608   34   34    8    8
 -0.5482100240251863   34   34    9    9
 -0.5483775288249311   34   34   10   10
 -0.5485511198957448   34   34   11   11
 -0.5485851759591343   34   34   12   12
 -0.5486473554088028   34   34   13   13
 -0.5494073299554033   34   34   14   14
 -0.5503093218340124   34   34   15   15
 -0.5506691234228451   34   34   16   16
 -0.5506828110071763   34   34   17   17
 -0.5509115509327706   34   34   18   18
 -0.5517471602354586   34   34   19   19
 -0.552543593156912   34   34   20   20
 -0.5532173694081327   34   34   21   21
 -0.5538468587399257   34   34   22   22
 -0.5577921570511711   34   34   23   23
 -0.5579415733249486   34   34   24   24
 -0.5581488110764951   34   34   25   25
 -0.5591147164124697   34   34   26   26
 -0.5605475043983653   34   34   27   27
 -0.5612825540886063   34   34   28   28
 -0.5616356450778407   34   34   29   29
 -0.5896923574654294   34   34   30   30
 -0.5965644104252987   34   34   31   31
 -0.5971950077426456   34   34   32   32
 -0.597669032206227   34   34   33   33
 -0.5979028134898601   34   34   34   34
 -0.5252892815769155   35   35    1    1
 -0.5332615315531836   35   35    2    2
 -0.5345958209083466   35   35    3    3
 -0.5348963228992593   35   35    4    4
 -0.5349961750521061   35   35    5    5
 -0.5350726798225912   35   35    6    6
 -0.5372118222779254   35   35    7    7
 -0.5377821655457876   35   35    8    8
 -0.5483760711145269   35   35    9    9
 -0.5485436266497256   35   35   10   10
 -0.5487172702994613   35   35   11   11
 -0.5487513366780765   35   35   12   12
 -0.5488135349612508   35   35   13   13
 -0.5495737396962024   35   35   14   14
 -0.5504760047787287   35   35   15   15
 -0.550835915347704   35   35   16   16
 -0.5508496070778616   35   35   17   17
 -0.5510784162863896   35   35   18   18
 -0.5519142786864061   35   35   19   19
 -0.5527109528390715   35   35   20   20
 -0.55338493317008   35   35   21   21
 -0.5540146131676156   35   35   22   22
 -0.5579611064685045   35   35   23   23
 -0.5581105679989105   35   35   24   24
 -0.5583178685206068   35   35   25   25
 -0.5592840664192172   35   35   26   26
 -0.5607172883816262   35   35   27   27
 -0.5614525607107395   35   35   28   28
 -0.5618057586475459   35   35   29   29
 -0.5898709691202193   35   35   30   30
 -0.5967451035531406   35   35   31   31
 -0.5973758918718272   35   35   32   32
 -0.5978500599124666   35   35   33   33
 -0.5980839120060083   35   35   34   34
 -0.5982650653750052   35   35   35   35
 -0.536744445283217   36   36    1    1
 -0.54489054885176   36   36    2    2
 -0.546253935512981   36   36    3    3
 -0.5465609906539782   36   36    4    4
 -0.5466630203170035   36   36    5    5
 -0.5467411934532843   36   36    6    6
 -0.5489269849225551   36   36    7    7
 -0.5495097658618704   36   36    8    8
 -0.5603346963664597   36   36    9    9
 -0.5605059058427398   36   36   10   10
 -0.5606833361991609   36   36   11   11
 -0.5607181454749903   36   36   12   12
 -0.5607817001374799   36   36   13   13
 -0.5615584829180807   36   36   14   14
 -0.5624804240050285   36   36   15   15
 -0.5628481832673464   36   36   16   16
 -0.5628621735777641   36   36   17   17
 -0.5630959725072577   36   36   18   18
 -0.5639500628456007   36   36   19   19
 -0.5647641103450283   36   36   20   20
 -0.5654527883965069   36   36   21   21
 -0.5660962000419312   36   36   22   22
 -0.5701287558771475   36   36   23   23
 -0.5702814767664602   36   36   24   24
 -0.5704932979618039   36   36   25   25
 -0.5714805660697057   36   36   26   26
 -0.5729450427955042   36   36   27   27
 -0.5736963494607331   36   36   28   28
 -0.5740572497062078   36   36   29   29
 -0.6027344878590409   36   36   30   30
 -0.6097585289015771   36   36   31   31
 -0.6104030730376923   36   36   32   32
 -0.610887581423586   36   36   33   33
 -0.6111265332100179   36   36   34   34
 -0.6113116370527263   36   36   35   35
 -0.6246427197981883   36   36   36   36
 -0.5693555454348583   37   37    1    1
 -0.5779965836071106   37   37    2    2
 -0.5794428058511591   37   37    3    3
 -0.579768516808799   37   37    4    4
 -0.5798767455104703   37   37    5    5
 -0.5799596682291619   37   37    6    6
 -0.5822782623108144   37   37    7    7
 -0.5828964513996606   37   37    8    8
 -0.5943790745844852   37   37    9    9
 -0.5945606862725198   37   37   10   10
 -0.5947488968040765   37   37   11   11
 -0.5947858209947229   37   37   12   12
 -0.5948532370618004   37   37   13   13
 -0.5956772150044134   37   37   14   14
 -0.5966551706684744   37   37   15   15
 -0.5970452739610668   37   37   16   16
 -0.5970601142838474   37   37   17   17
 -0.5973081181862513   37   37   18   18
 -0.5982141006788718   37   37   19   19
 -0.5990776074410181   37   37   20   20
 -0.5998081276561303   37   37   21   21
 -0.6004906312042135   37   37   22   22
 -0.6047681939200132   37   37   23   23
 -0.6049301937059414   37   37   24   24
 -0.6051548845681746   37   37   25   25
 -0.6062021363413498   37   37   26   26
 -0.6077555906012326   37   37   27   27
 -0.6085525445705364   37   37   28   28
 -0.608935372111493   37   37   29   29
 -0.639354959521394   37   37   30   30
 -0.6468057617682991   37   37   31   31
 -0.6474894666140587   37   37   32   32
 -0.6480034123823707   37   37   33   33
 -0.6482568822149737   37   37   34   34
 -0.6484532324525094   37   37   35   35
 -0.6625942747203521   37   37   36   36
 -0.7028516606005319   37   37   37   37
 -0.6176871677923039   38   38    1    1
 -0.6270617289750303   38   38    2    2
 -0.6286307185617434   38   38    3    3
 -0.6289840785677302   38   38    4    4
 -0.6291014946195193   38   38    5    5
 -0.6291914565065421   38   38    6    6
 -0.6317068720900718   38   38    7    7
 -0.6323775381975879   38   38    8    8
 -0.6448349017039773   38   38    9    9
 -0.6450319300988344   38   38   10   10
 -0.6452361175017991   38   38   11   11
 -0.6452761761240894   38   38   12   12
 -0.645349315026258   38   38   13   13
 -0.646243239052777   38   38   14   14
 -0.6473042117072171   38   38   15   15
 -0.6477274302037785   38   38   16   16
 -0.6477435302962796   38   38   17   17
 -0.6480125868274851   38   38   18   18
 -0.6489954766305672   38   38   19   19
 -0.6499322850107723   38   38   20   20
 -0.6507248178425077   38   38   21   21
 -0.6514652579541459   38   38   22   22
 -0.6561059356820818   38   38   23   23
 -0.6562816873538714   38   38   24   24
 -0.6565254518406398   38   38   25   25
 -0.6576616030328514   38   38   26   26
 -0.6593469273785536   38   38   27   27