 &FCI NORB=  44,NELEC=66,MS2=0,
  ORBSYM=1,1,1,1,1,1,1,1,1,1,1,1,1,1,1,1,1,1,1,1,1,1,1,1,1,1,1,1,1,1,1,1,1,1,1,1,1,1,1,1,1,1,1,1,
  ISYM=1,
 &END
 -0.4686293938772133    1    1    1    1
 -0.4710029642883299    2    2    1    1
 -0.4733885566438022    2    2    2    2
 -0.4740734381916097    3    3    1    1
 -0.4764745822519049    3    3    2    2
 -0.4795807256975011    3    3    3    3
 -0.4817679118229322    4    4    1    1
 -0.4842080277769648    4    4    2    2
 -0.4873645856455425    4    4    3    3
 -0.4952747819379033    4    4    4    4
 -0.4817781745037849    5    5    1    1
 -0.4842183424374755    5    5    2    2
 -0.4873749675474472    5    5    3    3
 -0.4952853323438077    5    5    4    4
 -0.4952958829744581    5    5    5    5
 -0.4826055368932158    6    6    1    1
 -0.4850498953512578    6    6    2    2
 -0.4882119413645243    6    6    3    3
 -0.4961358907080178    6    6    4    4
 -0.4961464594573697    6    6    5    5
 -0.496998496643627    6    6    6    6
 -0.4841737022506098    7    7    1    1
 -0.4866260033408056    7    7    2    2
 -0.4897983240207251    7    7    3    3
 -0.497748021230549    7    7    4    4
 -0.4977586243217088    7    7    5    5
 -0.4986134300945166    7    7    6    6
 -0.5002336110664116    7    7    7    7
 -0.4851256998699009    8    8    1    1
 -0.4875828227519223    8    8    2    2
 -0.4907613809489165    8    8    3    3
 -0.4987267091043755    8    8    4    4
 -0.4987373330436679    8    8    5    5
 -0.4995938195625734    8    8    6    6
 -0.5012171861854464    8    8    7    7
 -0.5022026952409329    8    8    8    8
 -0.4860675032923286    9    9    1    1
 -0.4885293963333835    9    9    2    2
 -0.4917141252547675    9    9    3    3
 -0.4996949169763076    9    9    4    4
 -0.4997055615404862    9    9    5    5
 -0.500563710807696    9    9    6    6
 -0.5021902289689057    9    9    7    7
 -0.5031776512518331    9    9    8    8
 -0.5041545000029201    9    9    9    9
 -0.4893025619917069   10   10    1    1
 -0.4917808403464177   10   10    2    2
 -0.4949867654698364   10   10    3    3
 -0.503020673948847   10   10    4    4
 -0.5030313893587204   10   10    5    5
 -0.5038952501026971   10   10    6    6
 -0.5055325936774379   10   10    7    7
 -0.5065265878233774   10   10    8    8
 -0.5075099380645431   10   10    9    9
 -0.5108877084956784   10   10   10   10
 -0.4905749683796431   11   11    1    1
 -0.4930596913709746   11   11    2    2
 -0.4962739533393706   11   11    3    3
 -0.5043287535881424   11   11    4    4
 -0.5043394968628935   11   11    5    5
 -0.5052056040327308   11   11    6    6
 -0.5068472054360332   11   11    7    7
 -0.5078437844131164   11   11    8    8
 -0.5088296918064934   11   11    9    9
 -0.5122162459575751   11   11   10   10
 -0.5135482382134672   11   11   11   11
 -0.4908415590223144   12   12    1    1
 -0.4933276322739359   12   12    2    2
 -0.4965436409522521   12   12    3    3
 -0.504602818379872   12   12    4    4
 -0.5046135674927857   12   12    5    5
 -0.5054801453268067   12   12    6    6
 -0.5071226388171526   12   12    7    7
 -0.5081197593600455   12   12    8    8
 -0.5091062025200281   12   12    9    9
 -0.5124945970088884   12   12   10   10
 -0.5138273131025105   12   12   11   11
 -0.5141065396477917   12   12   12   12
 -0.4910580969502943   13   13    1    1
 -0.4935452669492081   13   13    2    2
 -0.4967626943905503   13   13    3    3
 -0.5048254271764101   13   13    4    4
 -0.5048361810313645   13   13    5    5
 -0.505703141161801   13   13    6    6
 -0.507346359248772   13   13    7    7
 -0.5083439196778406   13   13    8    8
 -0.5093307980136025   13   13    9    9
 -0.512720687314604   13   13   10   10
 -0.5140539913445494   13   13   11   11
 -0.5143333410724267   13   13   12   12
 -0.5145602425519769   13   13   13   13
 -0.4984129105853815   14   14    1    1
 -0.500937332127309   14   14    2    2
 -0.5042029485291071   14   14    3    3
 -0.5123864407472983   14   14    4    4
 -0.512397355667918   14   14    5    5
 -0.5132773006777975   14   14    6    6
 -0.5149451300335095   14   14    7    7
 -0.515957631405597   14   14    8    8
 -0.5169592906935214   14   14    9    9
 -0.5203999519993168   14   14   10   10
 -0.5217532255659018   14   14   11   11
 -0.5220367592492016   14   14   12   12
 -0.5222670591414975   14   14   13   13
 -0.530089304435051   14   14   14   14
 -0.4995710573262315   15   15    1    1
 -0.5021013447888025   15   15    2    2
 -0.5053745494029289   15   15    3    3
 -0.5135770573501272   15   15    4    4
 -0.5135879976334119   15   15    5    5
 -0.5144699873444293   15   15    6    6
 -0.5161416921838847   15   15    7    7
 -0.5171565462742493   15   15    8    8
 -0.5181605330870332   15   15    9    9
 -0.5216091893516129   15   15   10   10
 -0.5229656074783352   15   15   11   11
 -0.5232498000001288   15   15   12   12
 -0.5234806350331968   15   15   13   13
 -0.5313210566373963   15   15   14   14
 -0.5325556710244249   15   15   15   15
 -0.4999062833963969   16   16    1    1
 -0.5024382687522106   16   16    2    2
 -0.5057136697776453   16   16    3    3
 -0.513921681835749   16   16    4    4
 -0.513932629460268   16   16    5    5
 -0.5148152110109054   16   16    6    6
 -0.5164880376107904   16   16    7    7
 -0.5175035726964677   16   16    8    8
 -0.5185082332123193   16   16    9    9
 -0.5219592036211432   16   16   10   10
 -0.5233165319421441   16   16   11   11
 -0.5236009151650219   16   16   12   12
 -0.5238319050948153   16   16   13   13
 -0.5316775878399163   16   16   14   14
 -0.5329130306875273   16   16   15   15
 -0.5332706301489002   16   16   16   16
 -0.5010590987766002   17   17    1    1
 -0.5035969230501423   17   17    2    2
 -0.5068798773566696   17   17    3    3
 -0.5151068176076281   17   17    4    4
 -0.5151177904780588   17   17    5    5
 -0.5160024073173486   17   17    6    6
 -0.5176790915607496   17   17    7    7
 -0.5186969685343065   17   17    8    8
 -0.5197039458605942   17   17    9    9
 -0.5231628744245687   17   17   10   10
 -0.5245233328301802   17   17   11   11
 -0.524808371858684   17   17   12   12
 -0.5250398944658063   17   17   13   13
 -0.5329036698495421   17   17   14   14
 -0.5341419617061843   17   17   15   15
 -0.5345003858144414   17   17   16   16
 -0.5357329773740135   17   17   17   17
 -0.5032846742555712   18   18    1    1
 -0.5058337708909705   18   18    2    2
 -0.5091313072350677   18   18    3    3
 -0.5173947894359363   18   18    4    4
 -0.5174058110450318   18   18    5    5
 -0.5182943571245061   18   18    6    6
 -0.5199784887675197   18   18    7    7
 -0.5210008868884591   18   18    8    8
 -0.5220123369487034   18   18    9    9
 -0.5254866291825807   18   18   10   10
 -0.526853130394071   18   18   11   11
 -0.5271394354925334   18   18   12   12
 -0.5273719864634525   18   18   13   13
 -0.5352706907122841   18   18   14   14
 -0.5365144827424559   18   18   15   15
 -0.536874498878297   18   18   16   16
 -0.5381125652921472   18   18   17   17
 -0.540502722726998   18   18   18   18
 -0.5042996062170008   19   19    1    1
 -0.5068538434016364   19   19    2    2
 -0.5101580296105137   19   19    3    3
 -0.5184381760823753   19   19    4    4
 -0.5184492199178247   19   19    5    5
 -0.519339557853601   19   19    6    6
 -0.5210270857435483   19   19    7    7
 -0.5220515456489675   19   19    8    8
 -0.5230650354156563   19   19    9    9
 -0.526546333963081   19   19   10   10
 -0.5279155908828729   19   19   11   11
 -0.5282024733487976   19   19   12   12
 -0.5284354932857415   19   19   13   13
 -0.5363501261884861   19   19   14   14
 -0.5375964264696529   19   19   15   15
 -0.5379571686198185   19   19   16   16
 -0.5391977317382936   19   19   17   17
 -0.541592709203035   19   19   18   18
 -0.5426848937633146   19   19   19   19
 -0.5049669111724766   20   20    1    1
 -0.507524528203358   20   20    2    2
 -0.510833086614402   20   20    3    3
 -0.5191241896341263   20   20    4    4
 -0.5191352480831231   20   20    5    5
 -0.5200267641418035   20   20    6    6
 -0.5217165250212467   20   20    7    7
 -0.52274234052394   20   20    8    8
 -0.5237571713718735   20   20    9    9
 -0.5272430764820312   20   20   10   10
 -0.5286141452452523   20   20   11   11
 -0.5289014073229965   20   20   12   12
 -0.5291347355991832   20   20   13   13
 -0.5370598413908448   20   20   14   14
 -0.5383077908153845   20   20   15   15
 -0.5386690103108058   20   20   16   16
 -0.5399112149810615   20   20   17   17
 -0.5423093615546238   20   20   18   18
 -0.5434029913275518   20   20   19   19
 -0.5441220391008654   20   20   20   20
 -0.5060654311338781   21   21    1    1
 -0.5086286120805328   21   21    2    2
 -0.51194436802745   21   21    3    3
 -0.5202535077580316   21   21    4    4
 -0.5202645902639054   21   21    5    5
 -0.5211580457530013   21   21    6    6
 -0.5228514825882646   21   21    7    7
 -0.5238795296803581   21   21    8    8
 -0.5248965682213489   21   21    9    9
 -0.5283900566726372   21   21   10   10
 -0.529764108099418   21   21   11   11
 -0.5300519950955868   21   21   12   12
 -0.53028583096101   21   21   13   13
 -0.5382281772623282   21   21   14   14
 -0.5394788415129751   21   21   15   15
 -0.5398408468159758   21   21   16   16
 -0.5410857538150301   21   21   17   17
 -0.543489117387614   21   21   18   18
 -0.5445851262751122   21   21   19   19
 -0.5453057382862297   21   21   20   20
 -0.5464920125258296   21   21   21   21
 -0.5071705175861028   22   22    1    1
 -0.5097392957072816   22   22    2    2
 -0.5130622922139179   22   22    3    3
 -0.5213895764712364   22   22    4    4
 -0.5214006831777893   22   22    5    5
 -0.5222960896904011   22   22    6    6
 -0.523993224454804   22   22    7    7
 -0.5250235164758016   22   22    8    8
 -0.5260427759065112   22   22    9    9
 -0.5295438930289573   22   22   10   10
 -0.5309209449484077   22   22   11   11
 -0.5312094605985006   22   22   12   12
 -0.5314438070873158   22   22   13   13
 -0.5394034969548144   22   22   14   14
 -0.5406568922596582   22   22   15   15
 -0.5410196880674659   22   22   16   16
 -0.5422673135487052   22   22   17   17
 -0.5446759253053388   22   22   18   18
 -0.5457743275287549   22   22   19   19
 -0.5464965131280327   22   22   20   20
 -0.5476853778144606   22   22   21   21
 -0.5488813490345223   22   22   22   22
 -0.5100812719875951   23   23    1    1
 -0.5126647928470907   23   23    2    2
 -0.5160068607042342   23   23    3    3
 -0.5243819369338065   23   23    4    4
 -0.5243931073839997   23   23    5    5
 -0.525293652816082   23   23    6    6
 -0.527000527780899   23   23    7    7
 -0.5280367328566404   23   23    8    8
 -0.5290618420238218   23   23    9    9
 -0.5325830527670936   23   23   10   10
 -0.5339680078666317   23   23   11   11
 -0.5342581793665213   23   23   12   12
 -0.5344938708173366   23   23   13   13
 -0.5424992429583763   23   23   14   14
 -0.5437598317529319   23   23   15   15
 -0.5441247097194176   23   23   16   16
 -0.5453794955761816   23   23   17   17
 -0.5478019308439006   23   23   18   18
 -0.5489066370203179   23   23   19   19
 -0.5496329673891336   23   23   20   20
 -0.550828655210974   23   23   21   21
 -0.5520314903522855   23   23   22   22
 -0.55519971096959   23   23   23   23
 -0.5163994091765686   24   24    1    1
 -0.5190149308957648   24   24    2    2
 -0.5223983953780658   24   24    3    3
 -0.5308772097440735   24   24    4    4
 -0.5308885185573876   24   24    5    5
 -0.5318002186228534   24   24    6    6
 -0.5335282358463347   24   24    7    7
 -0.5345772759077617   24   24    8    8
 -0.5356150826208198   24   24    9    9
 -0.5391799089480565   24   24   10   10
 -0.5405820188360566   24   24   11   11
 -0.5408757845540548   24   24   12   12
 -0.541114395404194   24   24   13   13
 -0.5492189263307323   24   24   14   14
 -0.550495129446731   24   24   15   15
 -0.5508645269852459   24   24   16   16
 -0.5521348552851874   24   24   17   17
 -0.5545872961210255   24   24   18   18
 -0.5557056857740952   24   24   19   19
 -0.5564410128561147   24   24   20   20
 -0.5576515111015259   24   24   21   21
 -0.5588692451968978   24   24   22   22
 -0.5620767090752362   24   24   23   23
 -0.5690388893270735   24   24   24   24
 -0.5175971028353745   25   25    1    1
 -0.5202186907771921   25   25    2    2
 -0.5236100025844187   25   25    3    3
 -0.5321084820042974   25   25    4    4
 -0.5321198170463286   25   25    5    5
 -0.5330336316327789   25   25    6    6
 -0.5347656566750805   25   25    7    7
 -0.5358171297924077   25   25    8    8
 -0.5368573435076762   25   25    9    9
 -0.5404304377953539   25   25   10   10
 -0.5418357996199209   25   25   11   11
 -0.5421302466735896   25   25   12   12
 -0.5423694109378051   25   25   13   13
 -0.5504927388364658   25   25   14   14
 -0.5517719018713804   25   25   15   15
 -0.5521421561596933   25   25   16   16
 -0.553415430752993   25   25   17   17
 -0.5558735595752724   25   25   18   18
 -0.556994543127893   25   25   19   19
 -0.5577315756661304   25   25   20   20
 -0.5589448814400684   25   25   21   21
 -0.5601654398461933   25   25   22   22
 -0.5633803428483565   25   25   23   23
 -0.5703586705995729   25   25   24   24
 -0.5716815128625247   25   25   25   25
 -0.5222337722493868   26   26    1    1
 -0.5248788445510654   26   26    2    2
 -0.5283005359559441   26   26    3    3
 -0.5368751453220219   26   26    4    4
 -0.5368865819041166   26   26    5    5
 -0.5378085825026599   26   26    6    6
 -0.5395561231409606   26   26    7    7
 -0.5406170154246938   26   26    8    8
 -0.5416665474438924   26   26    9    9
 -0.545271649748822   26   26   10   10
 -0.5466896008984681   26   26   11   11
 -0.5469866856285076   26   26   12   12
 -0.5472279923421742   26   26   13   13
 -0.5554240895546533   26   26   14   14
 -0.5567147114174613   26   26   15   15
 -0.5570882824684157   26   26   16   16
 -0.5583729631405555   26   26   17   17
 -0.5608531120449867   26   26   18   18
 -0.5619841374431347   26   26   19   19
 -0.5627277723680709   26   26   20   20
 -0.5639519470161604   26   26   21   21
 -0.5651834392660002   26   26   22   22
 -0.5684271415839585   26   26   23   23
 -0.5754679816612056   26   26   24   24
 -0.5768026740334926   26   26   25   25
 -0.5819697109082378   26   26   26   26
 -0.5235507091858671   27   27    1    1
 -0.5262024516678343   27   27    2    2
 -0.5296327716831853   27   27    3    3
 -0.5382290039706256   27   27    4    4
 -0.5382404693927881   27   27    5    5
 -0.5391647950356089   27   27    6    6
 -0.5409167425141732   27   27    7    7
 -0.5419803100906743   27   27    8    8
 -0.543032488755026   27   27    9    9
 -0.5466466821847304   27   27   10   10
 -0.5480682090361835   27   27   11   11
 -0.5483660429361831   27   27   12   12
 -0.5486079581622461   27   27   13   13
 -0.5568247237874698   27   27   14   14
 -0.5581186002609378   27   27   15   15
 -0.5584931133603416   27   27   16   16
 -0.5597810336610131   27   27   17   17
 -0.5622674368520756   27   27   18   18
 -0.5634013144003565   27   27   19   19
 -0.564146824578009   27   27   20   20
 -0.5653740862742681   27   27   21   21
 -0.5666086840253546   27   27   22   22
 -0.5698605661118772   27   27   23   23
 -0.5769191613456353   27   27   24   24
 -0.5782572194628766   27   27   25   25
 -0.5834372862527175   27   27   26   26
 -0.5849085624382397   27   27   27   27
 -0.5250772527744784   28   28    1    1
 -0.5277367270776684   28   28    2    2
 -0.5311770490525898   28   28    3    3
 -0.5397983458143099   28   28    4    4
 -0.5398098446667904   28   28    5    5
 -0.5407368654131782   28   28    6    6
 -0.5424939211346387   28   28    7    7
 -0.5435605898095366   28   28    8    8
 -0.5446158363650515   28   28    9    9
 -0.5482405678834478   28   28   10   10
 -0.5496662395534697   28   28   11   11
 -0.5499649418630091   28   28   12   12
 -0.5502075624536736   28   28   13   13
 -0.5584482861228161   28   28   14   14
 -0.5597459352181149   28   28   15   15
 -0.5601215403045234   28   28   16   16
 -0.5614132158603079   28   28   17   17
 -0.5639068687843638   28   28   18   18
 -0.5650440524374234   28   28   19   19
 -0.5657917363372427   28   28   20   20
 -0.5670225764232184   28   28   21   21
 -0.5682607739541322   28   28   22   22
 -0.5715221377196268   28   28   23   23
 -0.578601314060639   28   28   24   24
 -0.5799432736223903   28   28   25   25
 -0.5851384441979922   28   28   26   26
 -0.5866140102587619   28   28   27   27
 -0.5883244307407484   28   28   28   28
 -0.5255868453558369   29   29    1    1
 -0.5282489007047074   29   29    2    2
 -0.5316925615455703   29   29    3    3
 -0.5403222253596589   29   29    4    4
 -0.5403337353718876   29   29    5    5
 -0.5412616558009271   29   29    6    6
 -0.5430204167620564   29   29    7    7
 -0.5440881206492792   29   29    8    8
 -0.5451443913318407   29   29    9    9
 -0.5487726406874343   29   29   10   10
 -0.5501996959856796   29   29   11   11
 -0.5504986881887161   29   29   12   12
 -0.5507415442450239   29   29   13   13
 -0.5589902656166464   29   29   14   14
 -0.5602891740930148   29   29   15   15
 -0.5606651437078133   29   29   16   16
 -0.561958072847289   29   29   17   17
 -0.564454145885764   29   29   18   18
 -0.5655924331866206   29   29   19   19
 -0.5663408427209374   29   29   20   20
 -0.5675728773491895   29   29   21   21
 -0.5688122765628512   29   29   22   22
 -0.5720768055136041   29   29   23   23
 -0.5791628522641159   29   29   24   24
 -0.5805061142106754   29   29   25   25
 -0.5857063267498557   29   29   26   26
 -0.5871833248618404   29   29   27   27
 -0.5888954053235422   29   29   28   28
 -0.5894669340427228   29   29   29   29
 -0.5259012667866627   30   30    1    1
 -0.5285649146549412   30   30    2    2
 -0.5320106355944887   30   30    3    3
 -0.5406454619259956   30   30    4    4
 -0.5406569788238504   30   30    5    5
 -0.5415854543620438   30   30    6    6
 -0.5433452674654456   30   30    7    7
 -0.5444136100843774   30   30    8    8
 -0.5454705126589703   30   30    9    9
 -0.5491009325394995   30   30   10   10
 -0.5505288415439834   30   30   11   11
 -0.5508280126129049   30   30   12   12
 -0.5510710139528122   30   30   13   13
 -0.5593246699509367   30   30   14   14
 -0.5606243554723648   30   30   15   15
 -0.5610005500031886   30   30   16   16
 -0.5622942526107099   30   30   17   17
 -0.5647918188731175   30   30   18   18
 -0.5659307871307464   30   30   19   19
 -0.566679644385547   30   30   20   20
 -0.5679124160529659   30   30   21   21
 -0.569152556711505   30   30   22   22
 -0.5724190385990043   30   30   23   23
 -0.579509324430037   30   30   24   24
 -0.5808533899552001   30   30   25   25
 -0.5860567134136919   30   30   26   26
 -0.5875345951091677   30   30   27   27
 -0.5892476997875014   30   30   28   28
 -0.5898195704118859   30   30   29   29
 -0.5901724177384442   30   30   30   30
 -0.5297036620819122   31   31    1    1
 -0.5323865687783437   31   31    2    2
 -0.5358572031263897   31   31    3    3
 -0.5445544613725767   31   31    4    4
 -0.5445660615404311   31   31    5    5
 -0.545501250184755   31   31    6    6
 -0.5472737871690212   31   31    7    7
 -0.5483498541674219   31   31    8    8
 -0.5494143984071542   31   31    9    9
 -0.5530710671148785   31   31   10   10
 -0.5545093002520914   31   31   11   11
 -0.5548106344013034   31   31   12   12
 -0.5550553927005677   31   31   13   13
 -0.5633687246582647   31   31   14   14
 -0.5646778072251538   31   31   15   15
 -0.565056721734811   31   31   16   16
 -0.5663597781298566   31   31   17   17
 -0.5688754024096251   31   31   18   18
 -0.5700226056874332   31   31   19   19
 -0.5707768773640698   31   31   20   20
 -0.5720185622733543   31   31   21   21
 -0.5732676694533744   31   31   22   22
 -0.5765577688070131   31   31   23   23
 -0.5836993191456418   31   31   24   24
 -0.5850531025945904   31   31   25   25
 -0.5902940473593763   31   31   26   26
 -0.5917826145024081   31   31   27   27
 -0.5935081053482232   31   31   28   28
 -0.5940841107376464   31   31   29   29
 -0.5944395092370182   31   31   30   30
 -0.598737452854922   31   31   31   31
 -0.5299691190383532   32   32    1    1
 -0.5326533702530446   32   32    2    2
 -0.5361257438830644   32   32    3    3
 -0.5448273606939901   32   32    4    4
 -0.5448389666751801   32   32    5    5
 -0.5457746239821716   32   32    6    6
 -0.547548049259849   32   32    7    7
 -0.5486246555210315   32   32    8    8
 -0.5496897332490028   32   32    9    9
 -0.5533482344684036   32   32   10   10
 -0.5547871883652008   32   32   11   11
 -0.5550886735257271   32   32   12   12
 -0.5553335544837492   32   32   13   13
 -0.5636510526044488   32   32   14   14
 -0.5649607912080974   32   32   15   15
 -0.5653398956078756   32   32   16   16
 -0.5666436050197106   32   32   17   17
 -0.5691604899854297   32   32   18   18
 -0.5703082681754243   32   32   19   19
 -0.5710629178495676   32   32   20   20
 -0.5723052250197888   32   32   21   21
 -0.5735549581803598   32   32   22   22
 -0.5768467063422349   32   32   23   23
 -0.5839918356144312   32   32   24   24
 -0.5853462975016459   32   32   25   25
 -0.5905898687259897   32   32   26   26
 -0.5920791818531095   32   32   27   27
 -0.593805537415522   32   32   28   28
 -0.5943818314656597   32   32   29   29
 -0.5947374080702831   32   32   30   30
 -0.5990375055699011   32   32   31   31
 -0.5993377086540134   32   32   32   32
 -0.5309239678574074   33   33    1    1
 -0.5336130553050233   33   33    2    2
 -0.5370916851332646   33   33    3    3
 -0.5458089797039639   33   33    4    4
 -0.5458206065957261   33   33    5    5
 -0.5467579496825912   33   33    6    6
 -0.5485345701521606   33   33    7    7
 -0.549613116141867   33   33    8    8
 -0.550680112827329   33   33    9    9
 -0.5543452055922433   33   33   10   10
 -0.5557867520616634   33   33   11   11
 -0.55608878040997   33   33   12   12
 -0.5563341025716118   33   33   13   13
 -0.5646665863829351   33   33   14   14
 -0.56597868475117   33   33   15   15
 -0.5663584721858185   33   33   16   16
 -0.5676645304994055   33   33   17   17
 -0.5701859501531865   33   33   18   18
 -0.5713357963026335   33   33   19   19
 -0.5720918056340178   33   33   20   20
 -0.5733363510771718   33   33   21   21
 -0.5745883358901309   33   33   22   22
 -0.5778860148161432   33   33   23   23
 -0.5850440175143609   33   33   24   24
 -0.5864009197443937   33   33   25   25
 -0.5916539383452191   33   33   26   26
 -0.5931459347775156   33   33   27   27
 -0.5948754007260069   33   33   28   28
 -0.5954527330888942   33   33   29   29
 -0.5958089503382057   33   33   30   30
 -0.6001167953515407   33   33   31   31
 -0.6004175393135081   33   33   32   32
 -0.6014993155109463   33   33   33   33
 -0.5449263894625856   34   34    1    1
 -0.5476863980560797   34   34    2    2
 -0.5512567721724155   34   34    3    3
 -0.5602039739261114   34   34    4    4
 -0.5602159074618569   34   34    5    5
 -0.5611779717402403   34   34    6    6
 -0.5630014482388334   34   34    7    7
 -0.5641084394609701   34   34    8    8
 -0.5652035767811475   34   34    9    9
 -0.5689653315489536   34   34   10   10
 -0.5704448969111914   34   34   11   11
 -0.5707548908600845   34   34   12   12
 -0.5710066830711953   34   34   13   13
 -0.5795589251876774   34   34   14   14
 -0.5809056284252566   34   34   15   15
 -0.5812954322541578   34   34   16   16
 -0.5826359361385891   34   34   17   17
 -0.585223854920632   34   34   18   18
 -0.5864040267504785   34   34   19   19
 -0.5871799748339938   34   34   20   20
 -0.5884573435269101   34   34   21   21
 -0.5897423477932292   34   34   22   22
 -0.5931269986651998   34   34   23   23
 -0.6004737842733998   34   34   24   24
 -0.6018664730157247   34   34   25   25
 -0.6072580330755947   34   34   26   26
 -0.6087893789521491   34   34   27   27
 -0.6105644572911684   34   34   28   28
 -0.611157016036063   34   34   29   29
 -0.6115226280469785   34   34   30   30
 -0.6159440868086813   34   34   31   31
 -0.6162527624972339   34   34   32   32
 -0.6173630691195843   34   34   33   33
 -0.6336452083723386   34   34   34   34
 -0.5578296664923011   35   35    1    1
 -0.5606550291522802   35   35    2    2
 -0.564309945928347   35   35    3    3
 -0.5734690078985806   35   35    4    4
 -0.5734812240077538   35   35    5    5
 -0.5744660689444875   35   35    6    6
 -0.5763327234261503   35   35    7    7
 -0.5774659270224441   35   35    8    8
 -0.5785869960289943   35   35    9    9
 -0.5824378251467044   35   35   10   10
 -0.5839524250422695   35   35   11   11
 -0.5842697593179983   35   35   12   12
 -0.5845275137007285   35   35   13   13
 -0.5932822638098278   35   35   14   14
 -0.5946608555470049   35   35   15   15
 -0.5950598895157724   35   35   16   16
 -0.596432135105716   35   35   17   17
 -0.5990813330506345   35   35   18   18
 -0.6002894500935551   35   35   19   19
 -0.601083771801978   35   35   20   20
 -0.6023913872262557   35   35   21   21
 -0.6037068190261892   35   35   22   22
 -0.607171614829098   35   35   23   23
 -0.6146923645025619   35   35   24   24
 -0.6161180306323026   35   35   25   25
 -0.621637257097067   35   35   26   26
 -0.6232048636144265   35   35   27   27
 -0.6250219739195989   35   35   28   28
 -0.6256285638250128   35   35   29   29
 -0.626002833139288   35   35   30   30
 -0.6305289873394588   35   35   31   31
 -0.6308449721398454   35   35   32   32
 -0.6319815696415019   35   35   33   33
 -0.6486492526254413   35   35   34   34
 -0.6640085766801974   35   35   35   35
 -0.5776541937619427   36   36    1    1
 -0.580579966067489   36   36    2    2
 -0.5843647737433192   36   36    3    3
 -0.5938493366409865   36   36    4    4
 -0.5938619868944943   36   36    5    5
 -0.5948818319154426   36   36    6    6
 -0.5968148248242232   36   36    7    7
 -0.5979883009749297   36   36    8    8
 -0.5991492112886504   36   36    9    9
 -0.6031368937711784   36   36   10   10
 -0.6047053205403141   36   36   11   11
 -0.6050339324557611   36   36   12   12
 -0.6053008470877504   36   36   13   13
 -0.614366729416418   36   36   14   14
 -0.6157943144774161   36   36   15   15
 -0.616207529584747   36   36   16   16
 -0.617628542964847   36   36   17   17
 -0.6203718898947629   36   36   18   18
 -0.6216229418167352   36   36   19   19
 -0.6224454926662659   36   36   20   20
 -0.6237995790102416   36   36   21   21
 -0.6251617595135081   36   36   22   22
 -0.6287496895686885   36   36   23   23
 -0.6365377167211852   36   36   24   24
 -0.6380140491362889   36   36   25   25
 -0.6437294215970991   36   36   26   26
 -0.6453527387731386   36   36   27   27
 -0.647234426771038   36   36   28   28
 -0.6478625740780097   36   36   29   29
 -0.6482501444278388   36   36   30   30
 -0.6529371521515093   36   36   31   31
 -0.6532643666330482   36   36   32   32
 -0.6544413573040172   36   36   33   33
 -0.6717013876579248   36   36   34   34
 -0.6876065617397714   36   36   35   35
 -0.7120431879230128   36   36   36   36
 -0.6201071789495166   37   37    1    1
 -0.6232479722307449   37   37    2    2
 -0.6273109331441609   37   37    3    3
 -0.6374925359188921   37   37    4    4
 -0.6375061158653383   37   37    5    5
 -0.6386009113774896   37   37    6    6
 -0.640675963878688   37   37    7    7
 -0.6419356811857504   37   37    8    8
 -0.6431819091668309   37   37    9    9
 -0.6474626545703793   37   37   10   10
 -0.6491463482225688   37   37   11   11
 -0.6494991104980921   37   37   12   12
 -0.6497856412309263   37   37   13   13
 -0.6595177937474803   37   37   14   14
 -0.6610502949470661   37   37   15   15
 -0.6614938780756462   37   37   16   16
 -0.6630193246280978   37   37   17   17
 -0.6659642857206698   37   37   18   18
 -0.6673072800006928   37   37   19   19
 -0.6681902817902637   37   37   20   20
 -0.6696438827021667   37   37   21   21
 -0.6711061726296395   37   37   22   22
 -0.6749577869844089   37   37   23   23
 -0.6833181721409082   37   37   24   24
 -0.6849030032371037   37   37   25   25
 -0.6910384100801454   37   37   26   26
 -0.6927810281472254   37   37   27   27
 -0.6948010052349733   37   37   28   28
 -0.6954753163690348   37   37   29   29
 -0.6958913700545656   37   37   30   30
 -0.7009228355379403   37   37   31   31
 -0.7012740976792866   37   37   32   32
 -0.7025375877958759   37   37   33   33
 -0.7210660929931487   37   37   34   34
 -0.7381401707668479   37   37   35   35
 -0.7643726944621205   37   37   36   36
 -0.8205480031956346   37   37   37   37
 -0.6202422267336132   38   38    1    1
 -0.6233837040210702   38   38    2    2
 -0.6274475497716351   38   38    3    3
 -0.6376313699096544   38   38    4    4
 -0.6376449528135598   38   38    5    5
 -0.6387399867517655   38   38    6    6
 -0.6408154911607172   38   38    7    7
 -0.6420754828107267   38   38    8    8
 -0.6433219821970305   38   38    9    9
 -0.6476036598671299   38   38   10   10
 -0.649287720196411   38   38   11   11
 -0.6496405592969819   38   38   12   12
 -0.6499271524308685   38   38   13   13
 -0.6596614244288226   38   38   14   14
 -0.6611942593786022   38   38   15   15
 -0.6616379391113187   38   38   16   16
 -0.6631637178775934   38   38   17   17
 -0.6661093203277941   38   38   18   18
 -0.6674526070869365   38   38   19   19
 -0.6683358011778372   38   38   20   20
 -0.6697897186569219   38   38   21   21
 -0.6712523270438823   38   38   22   22
 -0.6751047802084597   38   38   23   23
 -0.6834669861009994   38   38   24   24
 -0.6850521623438647   38   38   25   25
 -0.6911889053641461   38   38   26   26
 -0.6929319029409569   38   38   27   27