 &FCI NORB=  55,NELEC=78,MS2=0,
  ORBSYM=1,1,1,1,1,1,1,1,1,1,1,1,1,1,1,1,1,1,1,1,1,1,1,1,1,1,1,1,1,1,1,1,1,1,1,1,1,1,1,1,1,1,1,1,1,1,1,1,1,1,1,1,1,1,1,
  ISYM=1,
 &END
 -1.477721179471181    1    1    1    1
 -1.474620534514945    2    2    1    1
 -1.471526395521591    2    2    2    2
 -1.056125732930114    3    3    1    1
 -1.053909705324599    3    3    2    2
 -0.7548119220679564    3    3    3    3
 -1.056051521289389    4    4    1    1
 -1.053835649399278    4    4    2    2
 -0.7547588830883833    4    4    3    3
 -0.754705847835743    4    4    4    4
 -1.055892362082478    5    5    1    1
 -1.053676824149949    5    5    2    2
 -0.7546451321748914    5    5    3    3
 -0.7545921049152786    5    5    4    4
 -0.7544783791371907    5    5    5    5
 -1.053092387929559    6    6    1    1
 -1.050882725074044    6    6    2    2
 -0.7526439936681705    6    6    3    3
 -0.752591107024175    6    6    4    4
 -0.7524776828196666    6    6    5    5
 -0.7504822918705475    6    6    6    6
 -1.053015280333197    7    7    1    1
 -1.050805779269557    7    7    2    2
 -0.7525888849522279    7    7    3    3
 -0.752536002180601    7    7    4    4
 -0.7524225862810314    7    7    5    5
 -0.7504273414347629    7    7    6    6
 -0.7503723950224582    7    7    7    7
 -1.052837823070351    8    8    1    1
 -1.050628694358393    8    8    2    2
 -0.7524620564378971    8    8    3    3
 -0.7524091825782321    8    8    4    4
 -0.7522957857918467    8    8    5    5
 -0.7503008771901662    8    8    6    6
 -0.7502459400375943    8    8    7    7
 -0.7501195063632999    8    8    8    8
 -0.9364992574249508    9    9    1    1
 -0.9345342374067001    9    9    2    2
 -0.669315009067123    9    9    3    3
 -0.6692679777682577    9    9    4    4
 -0.6691671113252812    9    9    5    5
 -0.6673926400979311    9    9    6    6
 -0.6673437734999978    9    9    7    7
 -0.6672313107450554    9    9    8    8
 -0.5935022596558706    9    9    9    9
 -0.9268734167708982   10   10    1    1
 -0.9249285942802244   10   10    2    2
 -0.6624354311351969   10   10    3    3
 -0.6623888832491961   10   10    4    4
 -0.6622890535655119   10   10    5    5
 -0.6605328213032696   10   10    6    6
 -0.6604844569823871   10   10    7    7
 -0.6603731501798387   10   10    8    8
 -0.5874019257431922   10   10    9    9
 -0.5813642943278349   10   10   10   10
 -0.912680892393354   11   11    1    1
 -0.9107658495253443   11   11    2    2
 -0.6522920492722352   11   11    3    3
 -0.6522462141394484   11   11    4    4
 -0.6521479130735816   11   11    5    5
 -0.6504185726918739   11   11    6    6
 -0.6503709489379239   11   11    7    7
 -0.6502613464937916   11   11    8    8
 -0.5784074762318763   11   11    9    9
 -0.5724622945831156   11   11   10   10
 -0.5636966045502727   11   11   11   11
 -0.9063314682744891   12   12    1    1
 -0.9044297481564967   12   12    2    2
 -0.6477541227036926   12   12    3    3
 -0.6477086064410608   12   12    4    4
 -0.6476109892452779   12   12    5    5
 -0.6458936797010961   12   12    6    6
 -0.6458463872605488   12   12    7    7
 -0.6457375473089897   12   12    8    8
 -0.574383556797683   12   12    9    9
 -0.5684797351467774   12   12   10   10
 -0.559775027089318   12   12   11   11
 -0.5558807316266194   12   12   12   12
 -0.8927151537305406   13   13    1    1
 -0.8908420041964984   13   13    2    2
 -0.6380225573872362   13   13    3    3
 -0.6379777249403723   13   13    4    4
 -0.6378815743012403   13   13    5    5
 -0.6361900648398553   13   13    6    6
 -0.6361434828995705   13   13    7    7
 -0.6360362781102751   13   13    8    8
 -0.5657542777182319   13   13    9    9
 -0.5599391524167571   13   13   10   10
 -0.5513652199607995   13   13   11   11
 -0.5475294306338838   13   13   12   12
 -0.5393035958145611   13   13   13   13
 -0.8894098448359748   14   14    1    1
 -0.8875436307032082   14   14    2    2
 -0.635660256685772   14   14    3    3
 -0.6356155902326012   14   14    4    4
 -0.6355197955945535   14   14    5    5
 -0.6338345490057596   14   14    6    6
 -0.6337881395367283   14   14    7    7
 -0.6336813316768926   14   14    8    8
 -0.5636595528348622   14   14    9    9
 -0.557865958236996   14   14   10   10
 -0.5493237710640547   14   14   11   11
 -0.5455021838804844   14   14   12   12
 -0.5373068055005759   14   14   13   13
 -0.5353174083721524   14   14   14   14
 -0.8880729066150437   15   15    1    1
 -0.8862094977278192   15   15    2    2
 -0.6347047483814459   15   15    3    3
 -0.6346601490697495   15   15    4    4
 -0.6345644984277614   15   15    5    5
 -0.632881785058708   15   15    6    6
 -0.6328354453512081   15   15    7    7
 -0.6327287980422265   15   15    8    8
 -0.5628122741543379   15   15    9    9
 -0.5570273883402787   15   15   10   10
 -0.5484980415654825   15   15   11   11
 -0.5446821988944111   15   15   12   12
 -0.5364991395985049   15   15   13   13
 -0.5345127328811647   15   15   14   14
 -0.5337092669578759   15   15   15   15
 -0.8814996194619588   16   16    1    1
 -0.8796500030478613   16   16    2    2
 -0.6300068271438303   16   16    3    3
 -0.6299625579447637   16   16    4    4
 -0.6298676152842166   16   16    5    5
 -0.6281973569265578   16   16    6    6
 -0.6281513602136497   16   16    7    7
 -0.6280455022806086   16   16    8    8
 -0.5586464825129757   16   16    9    9
 -0.5529044149352575   16   16   10   10
 -0.5444382001906825   16   16   11   11
 -0.5406506014052438   16   16   12   12
 -0.53252811100874   16   16   13   13
 -0.5305564071628179   16   16   14   14
 -0.5297588882875611   16   16   15   15
 -0.5258377493037292   16   16   16   16
 -0.8784246601125453   17   17    1    1
 -0.8765814957662195   17   17    2    2
 -0.627809157013805   17   17    3    3
 -0.6277650422402022   17   17    4    4
 -0.6276704307707475   17   17    5    5
 -0.6260059988212223   17   17    6    6
 -0.6259601625599119   17   17    7    7
 -0.6258546738940082   17   17    8    8
 -0.5566977406343703   17   17    9    9
 -0.5509757032687967   17   17   10   10
 -0.5425390214537977   17   17   11   11
 -0.5387646350532995   17   17   12   12
 -0.5306704785632816   17   17   13   13
 -0.5287056526660749   17   17   14   14
 -0.5279109157978293   17   17   15   15
 -0.524003455030882   17   17   16   16
 -0.52217555937716   17   17   17   17
 -0.873194465276618   18   18    1    1
 -0.8713622752449758   18   18    2    2
 -0.62407114240645   18   18    3    3
 -0.6240272902949419   18   18    4    4
 -0.6239332421480364   18   18    5    5
 -0.6222787203294337   18   18    6    6
 -0.6222331569800622   18   18    7    7
 -0.6221282964002092   18   18    8    8
 -0.5533831278047793   18   18    9    9
 -0.5476951598041031   18   18   10   10
 -0.5393087105151987   18   18   11   11
 -0.5355567970451145   18   18   12   12
 -0.5275108336641902   18   18   13   13
 -0.5255577064620768   18   18   14   14
 -0.5247677015063708   18   18   15   15
 -0.5208835060028579   18   18   16   16
 -0.519066493753078   18   18   17   17
 -0.5159759396982972   18   18   18   18
 -0.8584376752063503   19   19    1    1
 -0.8566364487741593   19   19    2    2
 -0.61352448046158   19   19    3    3
 -0.6134813694408934   19   19    4    4
 -0.6133889106865179   19   19    5    5
 -0.6117623499145259   19   19    6    6
 -0.6117175565755111   19   19    7    7
 -0.6116144681158729   19   19    8    8
 -0.5440310774080142   19   19    9    9
 -0.5384392347872508   19   19   10   10
 -0.5301945146051062   19   19   11   11
 -0.5265060076288118   19   19   12   12
 -0.5185960192193823   19   19   13   13
 -0.5166758994277005   19   19   14   14
 -0.5158992453780635   19   19   15   15
 -0.5120806919049534   19   19   16   16
 -0.5102943867535249   19   19   17   17
 -0.5072560623671637   19   19   18   18
 -0.4986835490017113   19   19   19   19
 -0.8583201468436683   20   20    1    1
 -0.8565191670166759   20   20    2    2
 -0.6134404830675506   20   20    3    3
 -0.6133973779491767   20   20    4    4
 -0.6133049318532927   20   20    5    5
 -0.6116785937730929   20   20    6    6
 -0.6116338065667163   20   20    7    7
 -0.6115307322208786   20   20    8    8
 -0.5439565943283188   20   20    9    9
 -0.5383655172845175   20   20   10   10
 -0.5301219258837532   20   20   11   11
 -0.5264339238994903   20   20   12   12
 -0.5185250184434463   20   20   13   13
 -0.5166051615346061   20   20   14   14
 -0.5158286138163679   20   20   15   15
 -0.5120105831399039   20   20   16   16
 -0.5102245225508073   20   20   17   17
 -0.5071866141402365   20   20   18   18
 -0.4986152744341994   20   20   19   19
 -0.4985470092141315   20   20   20   20
 -0.8576948446013948   21   21    1    1
 -0.8558951768218105   21   21    2    2
 -0.6129935802295198   21   21    3    3
 -0.6129505065140288   21   21    4    4
 -0.6128581277668508   21   21    5    5
 -0.6112329745042879   21   21    6    6
 -0.611188219926227   21   21    7    7
 -0.6110852206719734   21   21    8    8
 -0.5435603117997264   21   21    9    9
 -0.5379733079598749   21   21   10   10
 -0.5297357221692622   21   21   11   11
 -0.5260504069632589   21   21   12   12
 -0.518147263292411   21   21   13   13
 -0.5162288050351512   21   21   14   14
 -0.5154528230464153   21   21   15   15
 -0.5116375738765393   21   21   16   16
 -0.5098528144659078   21   21   17   17
 -0.506817119228298   21   21   18   18
 -0.4982520239031685   21   21   19   19
 -0.4981838084155871   21   21   20   20
 -0.4978208722156014   21   21   21   21
 -0.8568317066983585   22   22    1    1
 -0.8550338500075119   22   22    2    2
 -0.6123766965012982   22   22    3    3
 -0.6123336661328751   22   22    4    4
 -0.6122413803506933   22   22    5    5
 -0.6106178625548563   22   22    6    6
 -0.6105731530153925   22   22    7    7
 -0.6104702574140416   22   22    8    8
 -0.5430133019737333   22   22    9    9
 -0.5374319205936751   22   22   10   10
 -0.5292026246657916   22   22   11   11
 -0.52552101816255   22   22   12   12
 -0.5176258277898925   22   22   13   13
 -0.51570930016571   22   22   14   14
 -0.5149340990834594   22   22   15   15
 -0.5111226893748892   22   22   16   16
 -0.5093397260500158   22   22   17   17
 -0.506307085772615   22   22   18   18
 -0.4977506098981732   22   22   19   19
 -0.4976824630589851   22   22   20   20
 -0.4973198920984461   22   22   21   21
 -0.496819416140702   22   22   22   22
 -0.8549910356632715   23   23    1    1
 -0.8531970411809663   23   23    2    2
 -0.6110611708980785   23   23    3    3
 -0.6110182329687565   23   23    4    4
 -0.6109261454376022   23   23    5    5
 -0.6093061153303723   23   23    6    6
 -0.6092615018372541   23   23    7    7
 -0.609158827279256   23   23    8    8
 -0.5418467848516472   23   23    9    9
 -0.5362773935589791   23   23   10   10
 -0.5280657760462794   23   23   11   11
 -0.5243920784782466   23   23   12   12
 -0.5165138487854073   23   23   13   13
 -0.5146014383021502   23   23   14   14
 -0.51382790252963   23   23   15   15
 -0.5100246806033263   23   23   16   16
 -0.508245547492628   23   23   17   17
 -0.5052194220221312   23   23   18   18
 -0.4966813274204427   23   23   19   19
 -0.4966133269762958   23   23   20   20
 -0.4962515349013421   23   23   21   21
 -0.4957521340807479   23   23   22   22
 -0.4946871447874581   23   23   23   23
 -0.8530651780435071   24   24    1    1
 -0.8512752245134453   24   24    2    2
 -0.6096847625346817   24   24    3    3
 -0.609641921322559   24   24    4    4
 -0.6095500412175252   24   24    5    5
 -0.6079336602097549   24   24    6    6
 -0.6078891472080246   24   24    7    7
 -0.6077867039233047   24   24    8    8
 -0.5406262811085385   24   24    9    9
 -0.5350694348066494   24   24   10   10
 -0.5268763138693495   24   24   11   11
 -0.5232108912634615   24   24   12   12
 -0.5153504071937356   24   24   13   13
 -0.5134423043934222   24   24   14   14
 -0.5126705110014643   24   24   15   15
 -0.5088758557894546   24   24   16   16
 -0.5071007301559284   24   24   17   17
 -0.5040814209987644   24   24   18   18
 -0.4955625583584194   24   24   19   19
 -0.4954947110845024   24   24   20   20
 -0.495133733942098   24   24   21   21
 -0.4946354580161934   24   24   22   22
 -0.4935728675992191   24   24   23   23
 -0.4924611003077207   24   24   24   24
 -0.8524860577580241   25   25    1    1
 -0.8506973193735642   25   25    2    2
 -0.6092708658913519   25   25    3    3
 -0.6092280537628393   25   25    4    4
 -0.6091362360324445   25   25    5    5
 -0.6075209523371128   25   25    6    6
 -0.6074764695539201   25   25    7    7
 -0.6073740958148645   25   25    8    8
 -0.540259266190671   25   25    9    9
 -0.5347061922645623   25   25   10   10
 -0.5265186333905824   25   25   11   11
 -0.5228556991298297   25   25   12   12
 -0.5150005513062612   25   25   13   13
 -0.513093743859535   25   25   14   14
 -0.5123224744148921   25   25   15   15
 -0.5085303952801462   25   25   16   16
 -0.5067564747260092   25   25   17   17
 -0.5037392152869981   25   25   18   18
 -0.4952261358462153   25   25   19   19
 -0.4951583346317714   25   25   20   20
 -0.4947976025458891   25   25   21   21
 -0.4942996648845204   25   25   22   22
 -0.493237795828213   25   25   23   23
 -0.4921267832820818   25   25   24   24
 -0.4917926932142141   25   25   25   25
 -0.8504962147436743   26   26    1    1
 -0.848711651569526   26   26    2    2
 -0.6078487272354669   26   26    3    3
 -0.6078060150375209   26   26    4    4
 -0.6077144116248475   26   26    5    5
 -0.6061028982679842   26   26    6    6
 -0.6060585193149418   26   26    7    7
 -0.6059563845330721   26   26    8    8
 -0.538998211986929   26   26    9    9
 -0.5334580998509392   26   26   10   10
 -0.5252896520893132   26   26   11   11
 -0.5216352677210595   26   26   12   12
 -0.5137984551076463   26   26   13   13
 -0.5118960984638899   26   26   14   14
 -0.5111266292892956   26   26   15   15
 -0.5073434014924777   26   26   16   16
 -0.5055736215613932   26   26   17   17
 -0.50256340490339   26   26   18   18
 -0.4940701963936352   26   26   19   19
 -0.4940025534384047   26   26   20   20
 -0.4936426633606874   26   26   21   21
 -0.4931458879679189   26   26   22   22
 -0.4920864974890667   26   26   23   23
 -0.490978078229399   26   26   24   24
 -0.4906447679828335   26   26   25   25
 -0.4894995221982097   26   26   26   26
 -0.8502233959020816   27   27    1    1
 -0.8484394051731123   27   27    2    2
 -0.607653743903674   27   27    3    3
 -0.6076110454067793   27   27    4    4
 -0.6075194713782897   27   27    5    5
 -0.6059084749563634   27   27    6    6
 -0.6058641102390275   27   27    7    7
 -0.6057620082195527   27   27    8    8
 -0.5388253142535051   27   27    9    9
 -0.5332869792529675   27   27   10   10
 -0.525121151733992   27   27   11   11
 -0.5214679396048298   27   27   12   12
 -0.5136336408534444   27   27   13   13
 -0.5117318944401944   27   27   14   14
 -0.5109626720929055   27   27   15   15
 -0.5071806578650689   27   27   16   16
 -0.5054114456370525   27   27   17   17
 -0.5024021945845482   27   27   18   18
 -0.4939117104929234   27   27   19   19
 -0.4938440892359349   27   27   20   20
 -0.4934843146023458   27   27   21   21
 -0.4929876985632404   27   27   22   22
 -0.4919286479115131   27   27   23   23
 -0.4908205842062301   27   27   24   24
 -0.4904873808776188   27   27   25   25
 -0.4893425024604482   27   27   26   26
 -0.4891855330908625   27   27   27   27
 -0.850200050476388   28   28    1    1
 -0.8484161087322188   28   28    2    2
 -0.6076370589531139   28   28    3    3
 -0.6075943616286342   28   28    4    4
 -0.6075027901145832   28   28    5    5
 -0.605891837927381   28   28    6    6
 -0.6058474744282111   28   28    7    7
 -0.6057453752122526   28   28    8    8
 -0.5388105191932935   28   28    9    9
 -0.5332723362643043   28   28   10   10
 -0.525106732962541   28   28   11   11
 -0.5214536211432417   28   28   12   12
 -0.5136195375059549   28   28   13   13
 -0.5117178433108392   28   28   14   14
 -0.5109486420848499   28   28   15   15
 -0.507166731703523   28   28   16   16
 -0.5053975680545189   28   28   17   17
 -0.5023883996300005   28   28   18   18
 -0.4938981486700048   28   28   19   19
 -0.4938305292697602   28   28   20   20
 -0.4934707645148596   28   28   21   21
 -0.4929741621118324   28   28   22   22
 -0.4919151405395075   28   28   23   23
 -0.4908071072594269   28   28   24   24
 -0.4904739130799093   28   28   25   25
 -0.4893290660987991   28   28   26   26
 -0.4891721010392768   28   28   27   27
 -0.4891586693565083   28   28   28   28
 -0.8498252817174681   29   29    1    1
 -0.8480421263360296   29   29    2    2
 -0.6073692121253819   29   29    3    3
 -0.6073265336219118   29   29    4    4
 -0.6072350024726463   29   29    5    5
 -0.6056247603942608   29   29    6    6
 -0.6055804164505514   29   29    7    7
 -0.6054783622399966   29   29    8    8
 -0.538573011150971   29   29    9    9
 -0.5330372694567732   29   29   10   10
 -0.5248752655584839   29   29   11   11
 -0.5212237640333524   29   29   12   12
 -0.5133931336654465   29   29   13   13
 -0.511492277738422   29   29   14   14
 -0.5107234155768549   29   29   15   15
 -0.5069431722641892   29   29   16   16
 -0.5051747884637215   29   29   17   17
 -0.5021669464826857   29   29   18   18
 -0.4936804380310719   29   29   19   19
 -0.4936128484375048   29   29   20   20
 -0.4932532422671521   29   29   21   21
 -0.492756858766801   29   29   22   22
 -0.4916983040119035   29   29   23   23
 -0.4905907591536444   29   29   24   24
 -0.4902577118463471   29   29   25   25
 -0.4891133695145627   29   29   26   26
 -0.4889564736453452   29   29   27   27
 -0.4889430478832715   29   29   28   28
 -0.4887275214561263   29   29   29   29
 -0.8479407384789543   30   30    1    1
 -0.8461615373613977   30   30    2    2
 -0.6060223311056985   30   30    3    3
 -0.605979747244606   30   30    4    4
 -0.6058884190716607   30   30    5    5
 -0.604281747810579   30   30    6    6
 -0.6042375022024701   30   30    7    7
 -0.6041356743038132   30   30    8    8
 -0.5373786902141316   30   30    9    9
 -0.5318552243898149   30   30   10   10
 -0.5237113202699037   30   30   11   11
 -0.5200679161886324   30   30   12   12
 -0.512254650756591   30   30   13   13
 -0.5103580101021192   30   30   14   14
 -0.5095908529427675   30   30   15   15
 -0.5058189925673103   30   30   16   16
 -0.5040545302737758   30   30   17   17
 -0.5010533583793917   30   30   18   18
 -0.492585669316263   30   30   19   19
 -0.4925182296070478   30   30   20   20
 -0.4921594208869374   30   30   21   21
 -0.4916641381495189   30   30   22   22
 -0.4906079308091416   30   30   23   23
 -0.4895028420041664   30   30   24   24
 -0.4891705332510928   30   30   25   25
 -0.4880287285734006   30   30   26   26
 -0.487872180631052   30   30   27   27
 -0.4878587846414854   30   30   28   28
 -0.4876437361583126   30   30   29   29
 -0.4865623542254011   30   30   30   30
 -0.8467271361497162   31   31    1    1
 -0.8449504814867907   31   31    2    2
 -0.6051549708301214   31   31    3    3
 -0.6051124479165345   31   31    4    4
 -0.6050212504556524   31   31    5    5
 -0.6034168787184601   31   31    6    6
 -0.6033726964362069   31   31    7    7
 -0.6032710142771865   31   31    8    8
 -0.5366095751091107   31   31    9    9
 -0.5310940146615327   31   31   10   10
 -0.5229617663809515   31   31   11   11
 -0.5193235768665464   31   31   12   12
 -0.5115214940522246   31   31   13   13
 -0.5096275679359411   31   31   14   14
 -0.5088615087586453   31   31   15   15
 -0.5050950468011784   31   31   16   16
 -0.5033331098675565   31   31   17   17
 -0.5003362333549558   31   31   18   18
 -0.4918806635434493   31   31   19   19
 -0.4918133203562957   31   31   20   20
 -0.4914550251757274   31   31   21   21
 -0.4909604513042195   31   31   22   22
 -0.4899057556445886   31   31   23   23
 -0.4888022484812151   31   31   24   24
 -0.4884704153400073   31   31   25   25
 -0.4873302448529531   31   31   26   26
 -0.4871739209674742   31   31   27   27
 -0.4871605441507145   31   31   28   28
 -0.4869458034524237   31   31   29   29
 -0.4858659692310126   31   31   30   30
 -0.4851705809270917   31   31   31   31
 -0.8448202436489979   32   32    1    1
 -0.843047590144543   32   32    2    2
 -0.603792116816849   32   32    3    3
 -0.6037496896680268   32   32    4    4
 -0.6036586975906111   32   32    5    5
 -0.6020579390179239   32   32    6    6
 -0.6020138562374574   32   32    7    7
 -0.6019124030742234   32   32    8    8
 -0.535401090426262   32   32    9    9
 -0.5298979514311282   32   32   10   10
 -0.5217840175786527   32   32   11   11
 -0.5181540215376877   32   32   12   12
 -0.5103695095942801   32   32   13   13
 -0.5084798487405042   32   32   14   14
 -0.5077155147854648   32   32   15   15
 -0.5039575351805224   32   32   16   16
 -0.5021995662599499   32   32   17   17
 -0.4992094389362005   32   32   18   18
 -0.4907729116969402   32   32   19   19
 -0.4907057201716536   32   32   20   20
 -0.4903482318984865   32   32   21   21
 -0.4898547718441298   32   32   22   22
 -0.4888024514375858   32   32   23   23
 -0.4877014294544368   32   32   24   24
 -0.4873703436261489   32   32   25   25
 -0.4862327408878516   32   32   26   26
 -0.4860767690553921   32   32   27   27
 -0.486063422364219   32   32   28   28
 -0.4858491652779557   32   32   29   29
 -0.4847717629235427   32   32   30   30
 -0.4840779406858139   32   32   31   31
 -0.4829877611516438   32   32   32   32
 -0.8439155484204387   33   33    1    1
 -0.8421447932028435   33   33    2    2
 -0.6031455321129047   33   33    3    3
 -0.6031031503981727   33   33    4    4
 -0.6030122557617202   33   33    5    5
 -0.6014132113982434   33   33    6    6
 -0.6013691758248383   33   33    7    7
 -0.6012678313050625   33   33    8    8
 -0.5348277438291423   33   33    9    9
 -0.5293304979972326   33   33   10   10
 -0.5212252531378256   33   33   11   11
 -0.5175991443617821   33   33   12   12
 -0.5098229686423993   33   33   13   13
 -0.5079353313755   33   33   14   14
 -0.5071718159250919   33   33   15   15
 -0.50341786063922   33   33   16   16
 -0.501661774280182   33   33   17   17
 -0.4986748490031911   33   33   18   18
 -0.4902473562135622   33   33   19   19
 -0.4901802366418693   33   33   20   20
 -0.4898231311932584   33   33   21   21
 -0.4893301995719738   33   33   22   22
 -0.48827900606699   33   33   23   23
 -0.4871791631386071   33   33   24   24
 -0.486848431861209   33   33   25   25
 -0.4857120473510225   33   33   26   26
 -0.4855562425445944   33   33   27   27
 -0.485542910146033   33   33   28   28
 -0.4853288825019087   33   33   29   29
 -0.4842526339086379   33   33   30   30
 -0.4835595546664429   33   33   31   31
 -0.4824705425761524   33   33   32   32
 -0.4819538778760931   33   33   33   33
 -0.8429170636426774   34   34    1    1
 -0.8411484035069102   34   34    2    2
 -0.6024319161193178   34   34    3    3
 -0.6023895845488179   34   34    4    4
 -0.602298797455011   34   34    5    5
 -0.6007016450124248   34   34    6    6
 -0.6006576615400264   34   34    7    7
 -0.6005564369267513   34   34    8    8
 -0.5341949585203074   34   34    9    9
 -0.5287042167945172   34   34   10   10
 -0.5206085617141197   34   34   11   11
 -0.5169867431948705   34   34   12   12
 -0.5092197679139671   34   34   13   13
 -0.5073343640187368   34   34   14   14
 -0.5065717519271496   34   34   15   15
 -0.5028222381605937   34   34   16   16
 -0.5010682295278178   34   34   17   17
 -0.4980848382530467   34   34   18   18
 -0.4896673165123941   34   34   19   19
 -0.4896002763537073   34   34   20   20
 -0.4892435934169877   34   34   21   21
 -0.4887512450113119   34   34   22   22
 -0.4877012952335176   34   34   23   23
 -0.486602753592241   34   34   24   24
 -0.4862724136219429   34   34   25   25
 -0.4851373736332991   34   34   26   26
 -0.4849817531684534   34   34   27   27
 -0.4849684365442158   34   34   28   28
 -0.4847546621284447   34   34   29   29
 -0.4836796869064721   34   34   30   30
 -0.4829874276859895   34   34   31   31
 -0.4818997040682209   34   34   32   32
 -0.4813836506637339   34   34   33   33
 -0.4808140981198206   34   34   34   34
 -0.8405592905171008   35   35    1    1
 -0.8387955776051071   35   35    2    2
 -0.6007468182098301   35   35    3    3
 -0.6007046050474673   35   35    4    4
 -0.6006140718996051   35   35    5    5
 -0.5990213869464898   35   35    6    6
 -0.598977526502861   35   35    7    7
 -0.5988765850309328   35   35    8    8
 -0.5327007302369521   35   35    9    9
 -0.5272253469892838   35   35   10   10
 -0.5191523367440735   35   35   11   11
 -0.5155406490274128   35   35   12   12
 -0.507795399212008   35   35   13   13
 -0.505915269091419   35   35   14   14
 -0.5051547901471751   35   35   15   15
 -0.5014157643671294   35   35   16   16
 -0.4996666619755424   35   35   17   17
 -0.4966916157207905   35   35   18   18
 -0.488297639127579   35   35   19   19
 -0.4882307864908813   35   35   20   20
 -0.4878751012530801   35   35   21   21
 -0.4873841300242219   35   35   22   22
 -0.4863371171229913   35   35   23   23
 -0.4852416482774508   35   35   24   24
 -0.484912232320603   35   35   25   25
 -0.4837803672193796   35   35   26   26
 -0.4836251820497314   35   35   27   27
 -0.4836119026742103   35   35   28   28
 -0.4833987262194893   35   35   29   29
 -0.4823267578742289   35   35   30   30
 -0.4816364350129166   35   35   31   31
 -0.4805517539311514   35   35   32   32
 -0.480037144010135   35   35   33   33
 -0.4794691845952963   35   35   34   34
 -0.4781280330078607   35   35   35   35
 -0.8404418660960445   36   36    1    1
 -0.8386783995711529   36   36    2    2
 -0.6006628951027685   36   36    3    3
 -0.6006206878374986   36   36    4    4
 -0.6005301673369327   36   36    5    5
 -0.5989377048786617   36   36    6    6
 -0.5988938505622475   36   36    7    7
 -0.5987929231916375   36   36    8    8
 -0.532626313029802   36   36    9    9
 -0.5271516946820226   36   36   10   10
 -0.5190798122199025   36   36   11   11
 -0.5154686290486606   36   36   12   12
 -0.5077244612288814   36   36   13   13
 -0.5058445937586414   36   36   14   14
 -0.5050842210517572   36   36   15   15
 -0.5013457176059983   36   36   16   16
 -0.4995968595604533   36   36   17   17
 -0.4966222289136045   36   36   18   18
 -0.4882294249418285   36   36   19   19
 -0.4881625816443079   36   36   20   20
 -0.48780694609501   36   36   21   21
 -0.4873160434538327   36   36   22   22
 -0.4862691768181721   36   36   23   23
 -0.4851738610073984   36   36   24   24
 -0.4848444910692888   36   36   25   25
 -0.483712784087315   36   36   26   26
 -0.483557620596719   36   36   27   27
 -0.4835443430762996   36   36   28   28
 -0.4833311964018951   36   36   29   29
 -0.4822593778084295   36   36   30   30
 -0.4815691513838151   36   36   31   31
 -0.480484621829788   36   36   32   32
 -0.4799700837987295   36   36   33   33
 -0.4794022037266644   36   36   34   34
 -0.4780612394953743   36   36   35   35
 -0.4779944553138055   36   36   36   36
 -0.8291848901814898   37   37    1    1
 -0.8274450437319391   37   37    2    2
 -0.5926175465596893   37   37    3    3
 -0.5925759046234299   37   37    4    4
 -0.5924865965649565   37   37    5    5
 -0.5909154637337075   37   37    6    6
 -0.5908721968070981   37   37    7    7
 -0.5907726212694059   37   37    8    8
 -0.5254922543648219   37   37    9    9
 -0.5200909636906966   37   37   10   10
 -0.5121271969592733   37   37   11   11
 -0.50856438239462   37   37   12   12
 -0.5009239408575764   37   37   13   13
 -0.4990692525504514   37   37   14   14
 -0.4983190643638686   37   37   15   15
 -0.4946306348672347   37   37   16   16
 -0.4929052012293624   37   37   17   17
 -0.4899704131306981   37   37   18   18
 -0.4816900233495724   37   37   19   19
 -0.4816240753589383   37   37   20   20
 -0.4812732032334704   37   37   21   21
 -0.480788875799254   37   37   22   22
 -0.4797560310168337   37   37   23   23
 -0.4786753859931758   37   37   24   24
 -0.4783504276742512   37   37   25   25
 -0.4772338789069645   37   37   26   26
 -0.4770807936941733   37   37   27   27
 -0.4770676940144036   37   37   28   28
 -0.4768574022512986   37   37   29   29
 -0.4757999397204925   37   37   30   30
 -0.4751189582687322   37   37   31   31
 -0.4740489550294459   37   37   32   32
 -0.473541308780504   37   37   33   33
 -0.4729810349600447   37   37   34   34
 -0.4716580317593302   37   37   35   35
 -0.4715921420928418   37   37   36   36
 -0.4652755821983521   37   37   37   37
 -0.8287023114166048   38   38    1    1
 -0.8269634775433331   38   38    2    2
 -0.5922726480369903   38   38    3    3
 -0.5922310303359941   38   38    4    4
 -0.5921417742540739   38   38    5    5
 -0.5905715558091702   38   38    6    6
 -0.590528314063555   38   38    7    7
 -0.5904287964780041   38   38    8    8
 -0.5251864222083621   38   38    9    9
 -0.5197882750408458   38   38   10   10
 -0.5118291431559552   38   38   11   11
 -0.5082684021199833   38   38   12   12
 -0.5006324072568767   38   38   13   13
 -0.4987787983630443   38   38   14   14
 -0.4980290467797967   38   38   15   15
 -0.4943427639186985   38   38   16   16
 -0.4926183344689676   38   38   17   17
 -0.4896852543927633   38   38   18   18
 -0.4814096837301728   38   38   19   19
 -0.481343774120725   38   38   20   20
 -0.4809931061999393   38   38   21   21
 -0.4805090606402936   38   38   22   22
 -0.4794768169650152   38   38   23   23
 -0.4783968008678451   38   38   24   24
 -0.4780720316719811   38   38   25   25
 -0.4769561327268648   38   38   26   26
 -0.4768031366084045   38   38   27   27