 &FCI NORB=  28,NELEC=34,MS2=0,
  ORBSYM=1,1,1,1,1,1,1,1,1,1,1,1,1,1,1,1,1,1,1,1,1,1,1,1,1,1,1,1,
  ISYM=1,
 &END
 -0.5206234832770131    1    1    1    1
 -0.5225054555872948    2    2    1    1
 -0.5243942309325729    2    2    2    2
 -0.5257135523344729    3    3    1    1
 -0.5276139244467829    3    3    2    2
 -0.5308533863446133    3    3    3    3
 -0.5297839607600071    4    4    1    1
 -0.5316990467609418    4    4    2    2
 -0.5349635906315398    4    4    3    3
 -0.5391056187321873    4    4    4    4
 -0.5303318755780737    5    5    1    1
 -0.5322489422052176    5    5    2    2
 -0.5355168623425457    5    5    3    3
 -0.5396631742243971    5    5    4    4
 -0.5402213063533847    5    5    5    5
 -0.5306201343614853    6    6    1    1
 -0.5325382429989609    6    6    2    2
 -0.5358079393951308    6    6    3    3
 -0.5399565049805096    6    6    4    4
 -0.5405149404789455    6    6    5    5
 -0.5408087342076148    6    6    6    6
 -0.5460225764672855    7    7    1    1
 -0.547996362519409    7    7    2    2
 -0.5513609692029657    7    7    3    3
 -0.5556299562294341    7    7    4    4
 -0.5562046015734402    7    7    5    5
 -0.5565069233254614    7    7    6    6
 -0.5726607876681928    7    7    7    7
 -0.5465505588054147    8    8    1    1
 -0.5485262534309556    8    8    2    2
 -0.551894113556733    8    8    3    3
 -0.5561672285256141    8    8    4    4
 -0.5567424295290478    8    8    5    5
 -0.5570450436143028    8    8    6    6
 -0.5732145281079825    8    8    7    7
 -0.5737688039929801    8    8    8    8
 -0.5690790055565511    9    9    1    1
 -0.5711361369868869    9    9    2    2
 -0.5746428180438418    9    9    3    3
 -0.5790920679402002    9    9    4    4
 -0.5796909783424594    9    9    5    5
 -0.5800060659769516    9    9    6    6
 -0.596842045755542    9    9    7    7
 -0.597419168520045    9    9    8    8
 -0.6220443851798338    9    9    9    9
 -0.5714102926272765   10   10    1    1
 -0.5734758512950601   10   10    2    2
 -0.5769968978094109   10   10    3    3
 -0.5814643744873874   10   10    4    4
 -0.5820657383839133   10   10    5    5
 -0.5823821168053106   10   10    6    6
 -0.5992870667999828   10   10    7    7
 -0.5998665538035913   10   10    8    8
 -0.6245926500401213   10   10    9    9
 -0.6271513541133539   10   10   10   10
 -0.5752959108605398   11   11    1    1
 -0.5773755154293597   11   11    2    2
 -0.5809205052340446   11   11    3    3
 -0.5854183609742479   11   11    4    4
 -0.5860238141749939   11   11    5    5
 -0.5863423439852946   11   11    6    6
 -0.6033622484755004   11   11    7    7
 -0.6039456760193761   11   11    8    8
 -0.6288399109324643   11   11    9    9
 -0.6314160143198653   11   11   10   10
 -0.6357096744265726   11   11   11   11
 -0.5792475797935215   12   12    1    1
 -0.5813414690263071   12   12    2    2
 -0.5849108091276211   12   12    3    3
 -0.5894395603365006   12   12    4    4
 -0.5900491723545763   12   12    5    5
 -0.5903698901247283   12   12    6    6
 -0.6075067031945826   12   12    7    7
 -0.6080941382630317   12   12    8    8
 -0.6331593700020303   12   12    9    9
 -0.6357531684704008   12   12   10   10
 -0.6400763214397065   12   12   11   11
 -0.6444729626575921   12   12   12   12
 -0.5854575130792333   13   13    1    1
 -0.5875738502477496   13   13    2    2
 -0.5911814561350182   13   13    3    3
 -0.5957587586781731   13   13    4    4
 -0.5963749061572408   13   13    5    5
 -0.5966990622429346   13   13    6    6
 -0.6140195937599707   13   13    7    7
 -0.614613326537227   13   13    8    8
 -0.6399472748359832   13   13    9    9
 -0.6425688806116384   13   13   10   10
 -0.6469383807603882   13   13   11   11
 -0.6513821570023927   13   13   12   12
 -0.6583654226725398   13   13   13   13
 -0.5910237790253744   14   14    1    1
 -0.5931602373730513   14   14    2    2
 -0.5968021427497771   14   14    3    3
 -0.6014229642207822   14   14    4    4
 -0.6020449697521491   14   14    5    5
 -0.6023722077676853   14   14    6    6
 -0.6198574150854389   14   14    7    7
 -0.6204567928061202   14   14    8    8
 -0.646031604857662   14   14    9    9
 -0.6486781356784779   14   14   10   10
 -0.6530891790636476   14   14   11   11
 -0.657575204725662   14   14   12   12
 -0.6646248641357891   14   14   13   13
 -0.6709438175449616   14   14   14   14
 -0.6081979928084233   15   15    1    1
 -0.6103965332477246   15   15    2    2
 -0.6141442666194266   15   15    3    3
 -0.6188993618347592   15   15    4    4
 -0.6195394418605019   15   15    5    5
 -0.6198761888938411   15   15    6    6
 -0.637869488608505   15   15    7    7
 -0.6384862832952665   15   15    8    8
 -0.6648042588289251   15   15    9    9
 -0.6675276936385706   15   15   10   10
 -0.6720669149495561   15   15   11   11
 -0.6766832974034456   15   15   12   12
 -0.6839378087368013   15   15   13   13
 -0.6904403809115558   15   15   14   14
 -0.7105034834922656   15   15   15   15
 -0.6107517017248907   16   16    1    1
 -0.6129594734217585   16   16    2    2
 -0.6167229428206111   16   16    3    3
 -0.621498003785903   16   16    4    4
 -0.6221407713872185   16   16    5    5
 -0.6224789323579791   16   16    6    6
 -0.6405477825520285   16   16    7    7
 -0.6411671670436065   16   16    8    8
 -0.6675956468038139   16   16    9    9
 -0.6703305168037083   16   16   10   10
 -0.6748887974507533   16   16   11   11
 -0.6795245632258207   16   16   12   12
 -0.6868095348870559   16   16   13   13
 -0.6933394101386685   16   16   14   14
 -0.7134867539114871   16   16   15   15
 -0.7164825505217844   16   16   16   16
 -0.6108751801025618   17   17    1    1
 -0.6130833981544157   17   17    2    2
 -0.6168476284305521   17   17    3    3
 -0.6216236547910767   17   17    4    4
 -0.6222665523435662   17   17    5    5
 -0.6226047816818286   17   17    6    6
 -0.6406772849353817   17   17    7    7
 -0.6412967946506668   17   17    8    8
 -0.6677306175737271   17   17    9    9
 -0.6704660404944071   17   17   10   10
 -0.6750252427092474   17   17   11   11
 -0.6796619457176218   17   17   12   12
 -0.6869483902138562   17   17   13   13
 -0.6934795856392812   17   17   14   14
 -0.7136310026898597   17   17   15   15
 -0.7166274049736315   17   17   16   16
 -0.716772288711345   17   17   17   17
 -0.6138397013059127   18   18    1    1
 -0.616058635637376   18   18    2    2
 -0.6198411333776872   18   18    3    3
 -0.6246403373559556   18   18    4    4
 -0.6252863548312837   18   18    5    5
 -0.6256262255654933   18   18    6    6
 -0.6437864330192461   18   18    7    7
 -0.6444089491583417   18   18    8    8
 -0.6709710529988356   18   18    9    9
 -0.6737197506759841   18   18   10   10
 -0.678301078280882   18   18   11   11
 -0.6829602827835546   18   18   12   12
 -0.6902820877264231   18   18   13   13
 -0.6968449784440331   18   18   14   14
 -0.7170941884727351   18   18   15   15
 -0.7201051320218805   18   18   16   16
 -0.7202507188670806   18   18   17   17
 -0.7237460295252279   18   18   18   18
 -0.6139445449421456   19   19    1    1
 -0.6161638582669248   19   19    2    2
 -0.6199470020567116   19   19    3    3
 -0.624747025737575   19   19    4    4
 -0.6253931535524935   19   19    5    5
 -0.6257330823365223   19   19    6    6
 -0.6438963915482424   19   19    7    7
 -0.644519014012907   19   19    8    8
 -0.6710856546527425   19   19    9    9
 -0.6738348218066269   19   19   10   10
 -0.6784169319009009   19   19   11   11
 -0.6830769321943002   19   19   12   12
 -0.6903999876992493   19   19   13   13
 -0.6969639993566186   19   19   14   14
 -0.7172166679442991   19   19   15   15
 -0.7202281257616964   19   19   16   16
 -0.7203737374730859   19   19   17   17
 -0.7238696451292417   19   19   18   18
 -0.7239932818467633   19   19   19   19
 -0.620693861384595   20   20    1    1
 -0.622937572430695   20   20    2    2
 -0.6267623057008264   20   20    3    3
 -0.6316150977937889   20   20    4    4
 -0.6322683287275819   20   20    5    5
 -0.6326119944727909   20   20    6    6
 -0.6509749795714   20   20    7    7
 -0.6516044467520457   20   20    8    8
 -0.6784631441679667   20   20    9    9
 -0.681242533919686   20   20   10   10
 -0.6858750168224738   20   20   11   11
 -0.6905862461997718   20   20   12   12
 -0.6979898067264459   20   20   13   13
 -0.7046259789595097   20   20   14   14
 -0.7251012925242136   20   20   15   15
 -0.7281458563964334   20   20   16   16
 -0.7282930688705072   20   20   17   17
 -0.7318274083153634   20   20   18   18
 -0.7319524042164421   20   20   19   19
 -0.7399990241230235   20   20   20   20
 -0.6404874137270694   21   21    1    1
 -0.6428026753632352   21   21    2    2
 -0.6467493770672248   21   21    3    3
 -0.6517569217689611   21   21    4    4
 -0.6524309838426834   21   21    5    5
 -0.6527856088809342   21   21    6    6
 -0.6717341784831543   21   21    7    7
 -0.6723837189919947   21   21    8    8
 -0.7000989240459433   21   21    9    9
 -0.7029669468581025   21   21   10   10
 -0.7077471568426554   21   21   11   11
 -0.7126086244792283   21   21   12   12
 -0.7202482800793715   21   21   13   13
 -0.7270960758367212   21   21   14   14
 -0.7482243347839805   21   21   15   15
 -0.7513659879591785   21   21   16   16
 -0.7515178949501347   21   21   17   17
 -0.7551649423451579   21   21   18   18
 -0.755293924290025   21   21   19   19
 -0.7635971460452947   21   21   20   20
 -0.787947797822478   21   21   21   21
 -0.6976019696614507   22   22    1    1
 -0.7001236914674613   22   22    2    2
 -0.7044223346934819   22   22    3    3
 -0.7098764200856853   22   22    4    4
 -0.7106105906879873   22   22    5    5
 -0.7109968389106267   22   22    6    6
 -0.7316351203092504   22   22    7    7
 -0.7323425826709308   22   22    8    8
 -0.7625292517932756   22   22    9    9
 -0.7656530264684933   22   22   10   10
 -0.7708595048928149   22   22   11   11
 -0.7761544870049283   22   22   12   12
 -0.7844753980485699   22   22   13   13
 -0.7919338362719978   22   22   14   14
 -0.8149461777188914   22   22   15   15
 -0.8183679833563482   22   22   16   16
 -0.8185334364375879   22   22   17   17
 -0.8225057041070053   22   22   18   18
 -0.8226461878337133   22   22   19   19
 -0.8316898376024197   22   22   20   20
 -0.8582119241855947   22   22   21   21
 -0.9347417542758056   22   22   22   22
 -0.7007598699866631   23   23    1    1
 -0.7032930071075059   23   23    2    2
 -0.7076111094053636   23   23    3    3
 -0.7130898843179279   23   23    4    4
 -0.7138273783592174   23   23    5    5
 -0.7142153750479463   23   23    6    6
 -0.7349470816924479   23   23    7    7
 -0.7356577465904157   23   23    8    8
 -0.7659810645417264   23   23    9    9
 -0.7691189799010186   23   23   10   10
 -0.7743490269799949   23   23   11   11
 -0.779667978384715   23   23   12   12
 -0.7880265564775243   23   23   13   13
 -0.7955187575134379   23   23   14   14
 -0.8186352710867011   23   23   15   15
 -0.8220725665329675   23   23   16   16
 -0.8222387685862024   23   23   17   17
 -0.8262290178925855   23   23   18   18
 -0.8263701375601675   23   23   19   19
 -0.8354547260672772   23   23   20   20
 -0.8620968726696162   23   23   21   21
 -0.9389731375261274   23   23   22   22
 -0.9432236753762403   23   23   23   23
 -0.824424971107257   24   24    1    1
 -0.8274051381903141   24   24    2    2
 -0.8324852683670283   24   24    3    3
 -0.8389308983787469   24   24    4    4
 -0.8397985401055675   24   24    5    5
 -0.8402550076811167   24   24    6    6
 -0.8646452979694613   24   24    7    7
 -0.865481375937204   24   24    8    8
 -0.9011559366485092   24   24    9    9
 -0.9048476089177429   24   24   10   10
 -0.9110006173827632   24   24   11   11
 -0.9172582193744995   24   24   12   12
 -0.927091859680976   24   24   13   13
 -0.9359062308901612   24   24   14   14
 -0.963102181815691   24   24   15   15
 -0.9671460666332237   24   24   16   16
 -0.9673415988387689   24   24   17   17
 -0.9720360188676846   24   24   18   18
 -0.9722020423271489   24   24   19   19
 -0.9828898141849151   24   24   20   20
 -1.01423357669701   24   24   21   21
 -1.104676416174061   24   24   22   22
 -1.109677058611443   24   24   23   23
 -1.305504947081996   24   24   24   24
 -0.9143963937084923   25   25    1    1
 -0.9177017933857197   25   25    2    2
 -0.9233363300336309   25   25    3    3
 -0.9304853867027647   25   25    4    4
 -0.9314477161976734   25   25    5    5
 -0.9319539991458556   25   25    6    6
 -0.9590060587786587   25   25    7    7
 -0.9599333798877419   25   25    8    8
 -0.9995011887299952   25   25    9    9
 -1.003595741816139   25   25   10   10
 -1.010420242465744   25   25   11   11
 -1.017360751177921   25   25   12   12
 -1.028267559618224   25   25   13   13
 -1.038043863744071   25   25   14   14
 -1.068207772312219   25   25   15   15
 -1.072692975724675   25   25   16   16
 -1.072909846816491   25   25   17   17
 -1.078116579867321   25   25   18   18
 -1.078300721854676   25   25   19   19
 -1.090154875217347   25   25   20   20
 -1.124919255738017   25   25   21   21
 -1.225232333523008   25   25   22   22
 -1.230778707748945   25   25   23   23
 -1.447977751058523   25   25   24   24
 -1.605998944888572   25   25   25   25
 -0.9180683802579912   26   26    1    1
 -0.9213870535911943   26   26    2    2
 -0.9270442171249138   26   26    3    3
 -0.9342219826123579   26   26    4    4
 -0.9351881765811271   26   26    5    5
 -0.9356964926346327   26   26    6    6
 -0.9628571865531695   26   26    7    7
 -0.9637882315512171   26   26    8    8
 -1.003514934788572   26   26    9    9
 -1.00762593057283   26   26   10   10
 -1.014477836705183   26   26   11   11
 -1.021446216759389   26   26   12   12
 -1.032396824206518   26   26   13   13
 -1.042212387517441   26   26   14   14
 -1.07249742677607   26   26   15   15
 -1.07700064164036   26   26   16   16
 -1.077218383632081   26   26   17   17
 -1.082446025616783   26   26   18   18
 -1.082630907072169   26   26   19   19
 -1.094532663741242   26   26   20   20
 -1.12943664929377   26   26   21   21
 -1.230152559236565   26   26   22   22
 -1.235721206310137   26   26   23   23
 -1.453792466495333   26   26   24   24
 -1.612448233801691   26   26   25   25
 -1.618923421441343   26   26   26   26
 -0.9216123860069135   27   27    1    1
 -0.9249438703655528   27   27    2    2
 -0.9306228721637383   27   27    3    3
 -0.9378283458728127   27   27    4    4
 -0.9387982696258262   27   27    5    5
 -0.9393085479242524   27   27    6    6
 -0.9665740898665988   27   27    7    7
 -0.9675087289638402   27   27    8    8
 -1.007388788604364   27   27    9    9
 -1.011515654004662   27   27   10   10
 -1.018394010448611   27   27   11   11
 -1.025389290436965   27   27   12   12
 -1.036382170351572   27   27   13   13
 -1.046235624535932   27   27   14   14
 -1.076637572682337   27   27   15   15
 -1.081158171240163   27   27   16   16
 -1.081376753778065   27   27   17   17
 -1.086624575951569   27   27   18   18
 -1.086810171102095   27   27   19   19
 -1.098757871945877   27   27   20   20
 -1.133796596836039   27   27   21   21
 -1.234901298911882   27   27   22   22
 -1.240491442551143   27   27   23   23
 -1.459404519986982   27   27   24   24
 -1.618672743798241   27   27   25   25
 -1.62517292750868   27   27   26   26
 -1.631446558451579   27   27   27   27
 -0.9257272240118379   28   28    1    1
 -0.9290735828650694   28   28    2    2
 -0.9347779404123574   28   28    3    3
 -0.9420155853004564   28   28    4    4
 -0.9429898395932731   28   28    5    5
 -0.9435023961949941   28   28    6    6
 -0.970889674010157   28   28    7    7
 -0.9718284861073893   28   28    8    8
 -1.011886603234487   28   28    9    9
 -1.016031894366522   28   28   10   10
 -1.022940961468158   28   28   11   11
 -1.029967474157361   28   28   12   12
 -1.041009435356837   28   28   13   13
 -1.0509068834896   28   28   14   14
 -1.081444571013596   28   28   15   15
 -1.085985353252798   28   28   16   16
 -1.086204911723475   28   28   17   17
 -1.091476164504522   28   28   18   18
 -1.091662588304912   28   28   19   19
 -1.103663633541901   28   28   20   20
 -1.138858800206296   28   28   21   21
 -1.240414917081783   28   28   22   22
 -1.246030019734018   28   28   23   23
 -1.465920505746917   28   28   24   24
 -1.625899834302715   28   28   25   25
 -1.632429040195773   28   28   26   26
 -1.638730681802835   28   28   27   27
 -1.646047327490003   28   28   28   28
 -0.2603117416385066    1    1  0  0
 -0.2621971154662864    2    2  0  0
 -0.2654266931723067    3    3  0  0
 -0.2695528093660937    4    4  0  0
 -0.2701106531766924    5    5  0  0
 -0.2704043671038074    6    6  0  0
 -0.2863303938340964    7    7  0  0
 -0.2868844019964901    8    8  0  0
 -0.3110221925899169    9    9  0  0
 -0.3135756770566769   10   10  0  0
 -0.3178548372132863   11   11  0  0
 -0.3222364813287961   12   12  0  0
 -0.3291827113362699   13   13  0  0
 -0.3354719087724808   14   14  0  0
 -0.3552517417461328   15   15  0  0
 -0.3582412752608922   16   16  0  0
 -0.3583861443556725   17   17  0  0
 -0.361873014762614   18   18  0  0
 -0.3619966409233816   19   19  0  0
 -0.3699995120615118   20   20  0  0
 -0.393973898911239   21   21  0  0
 -0.4673708771379028   22   22  0  0
 -0.4716118376881202   23   23  0  0
 -0.6527524735409982   24   24  0  0
 -0.8029994724442858   25   25  0  0
 -0.8094617107206713   26   26  0  0
 -0.8157232792257895   27   27  0  0
 -0.8230236637450014   28   28  0  0
 -2970.956727276287  0  0  0  0
