 &FCI NORB=  52,NELEC=68,MS2=0,
  ORBSYM=1,1,1,1,1,1,1,1,1,1,1,1,1,1,1,1,1,1,1,1,1,1,1,1,1,1,1,1,1,1,1,1,1,1,1,1,1,1,1,1,1,1,1,1,1,1,1,1,1,1,1,1,
  ISYM=1,
 &END
 -0.388494577318877    1    1    1    1
 -0.3921828873914334    2    2    1    1
 -0.3959062137344489    2    2    2    2
 -0.3948682284651229    3    3    1    1
 -0.3986170490392258    3    3    2    2
 -0.4013464458815455    3    3    3    3
 -0.3950368157809684    4    4    1    1
 -0.3987872368981199    4    4    2    2
 -0.4015177990448484    4    4    3    3
 -0.4016892253666578    4    4    4    4
 -0.3952207713719991    5    5    1    1
 -0.3989729389363313    5    5    2    2
 -0.4017047726156194    5    5    3    3
 -0.401876278765002    5    5    4    4
 -0.4020634192679328    5    5    5    5
 -0.3953542065340918    6    6    1    1
 -0.3991076409121225    6    6    2    2
 -0.4018403969181107    6    6    3    3
 -0.4020119609717142    6    6    4    4
 -0.4021991646573649    6    6    5    5
 -0.4023349558774045    6    6    6    6
 -0.3966262491399813    7    7    1    1
 -0.4003917601024226    7    7    2    2
 -0.4031333086848237    7    7    3    3
 -0.4033054247416238    7    7    4    4
 -0.4034932307506094    7    7    5    5
 -0.4036294588756181    7    7    6    6
 -0.4049281269059472    7    7    7    7
 -0.3978954800602053    8    8    1    1
 -0.4016730409133291    8    8    2    2
 -0.4044233626372901    8    8    3    3
 -0.4045960294771552    8    8    4    4
 -0.4047844364781178    8    8    5    5
 -0.4049211005423737    8    8    6    6
 -0.4062239243985534    8    8    7    7
 -0.4075238685310946    8    8    8    8
 -0.4082492038008706    9    9    1    1
 -0.4121250613762414    9    9    2    2
 -0.4149469498124544    9    9    3    3
 -0.4151241096532424    9    9    4    4
 -0.4153174192332403    9    9    5    5
 -0.4154576394624629    9    9    6    6
 -0.4167943643780052    9    9    7    7
 -0.4181281346360017    9    9    8    8
 -0.4290083366266497    9    9    9    9
 -0.4082721665471861   10   10    1    1
 -0.412148242127475   10   10    2    2
 -0.4149702892861244   10   10    3    3
 -0.4151474590916018   10   10    4    4
 -0.4153407795446615   10   10    5    5
 -0.4154810076608353   10   10    6    6
 -0.4168178077629912   10   10    7    7
 -0.4181516530414111   10   10    8    8
 -0.4290324670095371   10   10    9    9
 -0.4290565987496834   10   10   10   10
 -0.41056661168167   11   11    1    1
 -0.4144644703847991   11   11    2    2
 -0.4173023771412928   11   11    3    3
 -0.4174805426217916   11   11    4    4
 -0.417674949514754   11   11    5    5
 -0.4178159656976765   11   11    6    6
 -0.4191602784708922   11   11    7    7
 -0.4205016198145842   11   11    8    8
 -0.4314435827728056   11   11    9    9
 -0.4314678501307047   11   11   10   10
 -0.4338926524820161   11   11   11   11
 -0.411144409326424   12   12    1    1
 -0.4150477535549568   12   12    2    2
 -0.4178896541477568   12   12    3    3
 -0.4180680703636834   12   12    4    4
 -0.4182627508489002   12   12    5    5
 -0.4184039654863878   12   12    6    6
 -0.4197501701347148   12   12    7    7
 -0.4210933991717729   12   12    8    8
 -0.4320507609477411   12   12    9    9
 -0.4320750624575217   12   12   10   10
 -0.4345032772760132   12   12   11   11
 -0.4351147614130688   12   12   12   12
 -0.4116498910673219   13   13    1    1
 -0.41555803426476   13   13    2    2
 -0.4184034288339501   13   13    3    3
 -0.4185820644038004   13   13    4    4
 -0.4187769842390567   13   13    5    5
 -0.4189183724929652   13   13    6    6
 -0.4202662322334053   13   13    7    7
 -0.4216111127042095   13   13    8    8
 -0.432581946015192   13   13    9    9
 -0.4326062774024784   13   13   10   10
 -0.4350374775911364   13   13   11   11
 -0.4356497135177314   13   13   12   12
 -0.4361853233195802   13   13   13   13
 -0.4118784477841073   14   14    1    1
 -0.415788760865219   14   14    2    2
 -0.418635735257591   14   14    3    3
 -0.4188144700096839   14   14    4    4
 -0.419009498068551   14   14    5    5
 -0.4191509648242052   14   14    6    6
 -0.4204995729248506   14   14    7    7
 -0.4218452001017065   14   14    8    8
 -0.4328221246511331   14   14    9    9
 -0.4328464695477197   14   14   10   10
 -0.4352790195900885   14   14   11   11
 -0.435891595443005   14   14   12   12
 -0.4364275026267322   14   14   13   13
 -0.4366698163969522   14   14   14   14
 -0.4119521568455738   15   15    1    1
 -0.4158631697096162   15   15    2    2
 -0.4187106535916486   15   15    3    3
 -0.4188894203298066   15   15    4    4
 -0.419084483290561   15   15    5    5
 -0.4192259753628635   15   15    6    6
 -0.4205748248081044   15   15    7    7
 -0.4219206927960948   15   15    8    8
 -0.4328995817571353   15   15    9    9
 -0.4329239310104429   15   15   10   10
 -0.4353569163778002   15   15   11   11
 -0.4359696018562422   15   15   12   12
 -0.4365056049450008   15   15   13   13
 -0.4367479620792781   15   15   14   14
 -0.4368261217464214   15   15   15   15
 -0.4126568673561425   16   16    1    1
 -0.4165745706375706   16   16    2    2
 -0.4194269255993801   16   16    3    3
 -0.4196059981468346   16   16    4    4
 -0.4198013947941989   16   16    5    5
 -0.4199431289114789   16   16    6    6
 -0.4212942857809326   16   16    7    7
 -0.4226424560928731   16   16    8    8
 -0.4336401262116686   16   16    9    9
 -0.4336645171182954   16   16   10   10
 -0.4361016644989642   16   16   11   11
 -0.436715398074592   16   16   12   12
 -0.4372523180829592   16   16   13   13
 -0.4374950898081471   16   16   14   14
 -0.4375733831799889   16   16   15   15
 -0.4383219229245874   16   16   16   16
 -0.4131652253116914   17   17    1    1
 -0.4170877548683815   17   17    2    2
 -0.4199436236874694   17   17    3    3
 -0.4201229168369818   17   17    4    4
 -0.4203185541962984   17   17    5    5
 -0.4204604629178847   17   17    6    6
 -0.4218132842970029   17   17    7    7
 -0.4231631154394243   17   17    8    8
 -0.4341743337468957   17   17    9    9
 -0.4341987547010329   17   17   10   10
 -0.4366389044387634   17   17   11   11
 -0.4372533940816482   17   17   12   12
 -0.4377909755295292   17   17   13   13
 -0.4380340463287121   17   17   14   14
 -0.4381124361512896   17   17   15   15
 -0.4388618980328118   17   17   16   16
 -0.4394025383441719   17   17   17   17
 -0.4149435399329716   18   18    1    1
 -0.4188829525457268   18   18    2    2
 -0.4217511133801304   18   18    3    3
 -0.4219311782297031   18   18    4    4
 -0.4221276576365959   18   18    5    5
 -0.4222701771510056   18   18    6    6
 -0.4236288212419375   18   18    7    7
 -0.4249844622258213   18   18    8    8
 -0.4360430741891831   18   18    9    9
 -0.4360676002541503   18   18   10   10
 -0.4385182527004606   18   18   11   11
 -0.4391353871833503   18   18   12   12
 -0.4396752824487802   18   18   13   13
 -0.4399193994549759   18   18   14   14
 -0.4399981266771193   18   18   15   15
 -0.4407508143359828   18   18   16   16
 -0.4412937816306212   18   18   17   17
 -0.4431931650638755   18   18   18   18
 -0.4187556447544431   19   19    1    1
 -0.4227312489266988   19   19    2    2
 -0.4256257596827022   19   19    3    3
 -0.4258074787960848   19   19    4    4
 -0.4260057632680581   19   19    5    5
 -0.4261495921156077   19   19    6    6
 -0.4275207181304432   19   19    7    7
 -0.4288888134485521   19   19    8    8
 -0.4400490213735985   19   19    9    9
 -0.4400737727606192   19   19   10   10
 -0.4425469394603332   19   19   11   11
 -0.4431697435852618   19   19   12   12
 -0.4437145988925922   19   19   13   13
 -0.4439609586126195   19   19   14   14
 -0.4440404091052665   19   19   15   15
 -0.4448000117392466   19   19   16   16
 -0.4453479672986551   19   19   17   17
 -0.4472648004522855   19   19   18   18
 -0.4513738421367375   19   19   19   19
 -0.421292309792205   20   20    1    1
 -0.4252919966872469   20   20    2    2
 -0.4282040413065621   20   20    3    3
 -0.4283868612063517   20   20    4    4
 -0.4285863468114772   20   20    5    5
 -0.4287310469203784   20   20    6    6
 -0.4301104787036679   20   20    7    7
 -0.431486861431404   20   20    8    8
 -0.442714673720982   20   20    9    9
 -0.4427395750426456   20   20   10   10
 -0.4452277232610051   20   20   11   11
 -0.4458543001003289   20   20   12   12
 -0.4464024559372786   20   20   13   13
 -0.4466503080123257   20   20   14   14
 -0.4467302397863344   20   20   15   15
 -0.4474944438089007   20   20   16   16
 -0.4480457186780957   20   20   17   17
 -0.4499741632898759   20   20   18   18
 -0.4541080960116434   20   20   19   19
 -0.4568589129736281   20   20   20   20
 -0.427373671712432   21   21    1    1
 -0.4314310941583277   21   21    2    2
 -0.434385174193069   21   21    3    3
 -0.4345706331013355   21   21    4    4
 -0.4347729982846885   21   21    5    5
 -0.434919787142213   21   21    6    6
 -0.436319131047617   21   21    7    7
 -0.4377153818842968   21   21    8    8
 -0.4491052678422476   21   21    9    9
 -0.4491305286149287   21   21   10   10
 -0.4516545932966919   21   21   11   11
 -0.4522902147837395   21   21   12   12
 -0.4528462832598608   21   21   13   13
 -0.4530977130839814   21   21   14   14
 -0.4531787986745573   21   21   15   15
 -0.4539540339956641   21   21   16   16
 -0.4545132665273163   21   21   17   17
 -0.4564695482710705   21   21   18   18
 -0.4606631543845676   21   21   19   19
 -0.463453679437902   21   21   20   20
 -0.470143641472369   21   21   21   21
 -0.4281752903367211   22   22    1    1
 -0.432240323231305   22   22    2    2
 -0.4351999441913073   22   22    3    3
 -0.4353857509621698   22   22    4    4
 -0.4355884957189748   22   22    5    5
 -0.4357355599062396   22   22    6    6
 -0.4371375285407988   22   22    7    7
 -0.4385363983050097   22   22    8    8
 -0.4499476481075694   22   22    9    9
 -0.449972956261517   22   22   10   10
 -0.4525017552949536   22   22   11   11
 -0.4531385690080453   22   22   12   12
 -0.4536956804937771   22   22   13   13
 -0.4539475819211879   22   22   14   14
 -0.4540288196028351   22   22   15   15
 -0.4548055090216385   22   22   16   16
 -0.4553657904976743   22   22   17   17
 -0.4573257416108444   22   22   18   18
 -0.4615272136107684   22   22   19   19
 -0.4643229728116471   22   22   20   20
 -0.4710254831112917   22   22   21   21
 -0.4719089788078419   22   22   22   22
 -0.4281915737360974   23   23    1    1
 -0.4322567612228671   23   23    2    2
 -0.4352164947365155   23   23    3    3
 -0.4354023085735632   23   23    4    4
 -0.4356050610407007   23   23    5    5
 -0.4357521308207798   23   23    6    6
 -0.4371541527718562   23   23    7    7
 -0.4385530757347348   23   23    8    8
 -0.4499647595042752   23   23    9    9
 -0.4499900686206855   23   23   10   10
 -0.452518963823718   23   23   11   11
 -0.4531558017546762   23   23   12   12
 -0.4537129344272186   23   23   13   13
 -0.4539648454343777   23   23   14   14
 -0.4540460862054737   23   23   15   15
 -0.4548228051615817   23   23   16   16
 -0.4553831079449822   23   23   17   17
 -0.4573431335946037   23   23   18   18
 -0.4615447653754588   23   23   19   19
 -0.4643406308983618   23   23   20   20
 -0.4710433960927995   23   23   21   21
 -0.4719269253884705   23   23   22   22
 -0.4719448726516029   23   23   23   23
 -0.4324570832582563   24   24    1    1
 -0.4365627668617125   24   24    2    2
 -0.4395519843079273   24   24    3    3
 -0.4397396491638644   24   24    4    4
 -0.4399444213871864   24   24    5    5
 -0.4400929562300687   24   24    6    6
 -0.4415089446820046   24   24    7    7
 -0.4429218032745988   24   24    8    8
 -0.4544471666417037   24   24    9    9
 -0.4544727278795561   24   24   10   10
 -0.4570268151396741   24   24   11   11
 -0.4576699970494146   24   24   12   12
 -0.4582326797020725   24   24   13   13
 -0.4584871001673006   24   24   14   14
 -0.458569150233357   24   24   15   15
 -0.4593536066189394   24   24   16   16
 -0.4599194909621007   24   24   17   17
 -0.4618990417695837   24   24   18   18
 -0.4661425288821854   24   24   19   19
 -0.4689662459363704   24   24   20   20
 -0.4757357819654423   24   24   21   21
 -0.4766281127015313   24   24   22   22
 -0.4766462387496435   24   24   23   23
 -0.4813944383752179   24   24   24   24
 -0.4325651027315226   25   25    1    1
 -0.4366718118558858   25   25    2    2
 -0.4396617759512053   25   25    3    3
 -0.4398494876822189   25   25    4    4
 -0.4400543110537093   25   25    5    5
 -0.4402028829977426   25   25    6    6
 -0.441619225136397   25   25    7    7
 -0.4430324366339312   25   25    8    8
 -0.4545606788154394   25   25    9    9
 -0.4545862464379979   25   25   10   10
 -0.4571409716600576   25   25   11   11
 -0.4577843142242857   25   25   12   12
 -0.4583471374242629   25   25   13   13
 -0.4586016214388366   25   25   14   14
 -0.4586836919994235   25   25   15   15
 -0.4594683443271441   25   25   16   16
 -0.4600343700173454   25   25   17   17
 -0.4620144152785993   25   25   18   18
 -0.4662589623327777   25   25   19   19
 -0.4690833846972483   25   25   20   20
 -0.475854611626399   25   25   21   21
 -0.476747165249567   25   25   22   22
 -0.4767652958252178   25   25   23   23
 -0.4815146814598608   25   25   24   24
 -0.4816349545789167   25   25   25   25
 -0.4326178507711332   26   26    1    1
 -0.4367250606775849   26   26    2    2
 -0.4397153893763907   26   26    3    3
 -0.4399031239974289   26   26    4    4
 -0.4401079723455789   26   26    5    5
 -0.4402565624068359   26   26    6    6
 -0.4416730772576919   26   26    7    7
 -0.4430864610856697   26   26    8    8
 -0.4546161090490392   26   26    9    9
 -0.4546416797893758   26   26   10   10
 -0.4571967165408361   26   26   11   11
 -0.4578401375558196   26   26   12   12
 -0.4584030293878252   26   26   13   13
 -0.458657544434798   26   26   14   14
 -0.4587396250032685   26   26   15   15
 -0.4595243730134004   26   26   16   16
 -0.4600904677261497   26   26   17   17
 -0.4620707544389335   26   26   18   18
 -0.4663158190834925   26   26   19   19
 -0.4691405858648885   26   26   20   20
 -0.4759126384939026   26   26   21   21
 -0.4768053009572281   26   26   22   22
 -0.4768234337437653   26   26   23   23
 -0.4815733985300319   26   26   24   24
 -0.4816936863154843   26   26   25   25
 -0.4817524252139424   26   26   26   26
 -0.4335943168227888   27   27    1    1
 -0.4377107971535504   27   27    2    2
 -0.4407078753529892   27   27    3    3
 -0.4408960337117069   27   27    4    4
 -0.4411013444250999   27   27    5    5
 -0.4412502698704613   27   27    6    6
 -0.4426699819510689   27   27    7    7
 -0.4440865559417354   27   27    8    8
 -0.4556422275881399   27   27    9    9
 -0.4556678560444488   27   27   10   10
 -0.4582286597947605   27   27   11   11
 -0.4588735330817132   27   27   12   12
 -0.4594376954224686   27   27   13   13
 -0.459692784937884   27   27   14   14
 -0.4597750507712217   27   27   15   15
 -0.4605615700438884   27   27   16   16
 -0.4611289424946414   27   27   17   17
 -0.4631136989322507   27   27   18   18
 -0.4673683451544195   27   27   19   19
 -0.470199487744999   27   27   20   20
 -0.4769868256413234   27   27   21   21
 -0.4778815029419687   27   27   22   22
 -0.4778996766561989   27   27   23   23
 -0.4826603626352043   27   27   24   24
 -0.4827809219234129   27   27   25   25
 -0.4828397934020227   27   27   26   26
 -0.4839296158996498   27   27   27   27
 -0.4355380694734901   28   28    1    1
 -0.4396730035045057   28   28    2    2
 -0.4426835172552617   28   28    3    3
 -0.4428725191059125   28   28    4    4
 -0.4430787502032401   28   28    5    5
 -0.4432283432639691   28   28    6    6
 -0.4446544197479207   28   28    7    7
 -0.4460773440742406   28   28    8    8
 -0.4576848184461927   28   28    9    9
 -0.4577105617918761   28   28   10   10
 -0.4602828453261345   28   28   11   11
 -0.46093060950467   28   28   12   12
 -0.4614973009192687   28   28   13   13
 -0.461753533971171   28   28   14   14
 -0.4618361685926254   28   28   15   15
 -0.4626262137392757   28   28   16   16
 -0.4631961296544199   28   28   17   17
 -0.4651897835231923   28   28   18   18
 -0.4694635028271596   28   28   19   19
 -0.4723073370991136   28   28   20   20
 -0.4791251018380311   28   28   21   21
 -0.4800237898724596   28   28   22   22
 -0.4800420450573267   28   28   23   23
 -0.4848240726352226   28   28   24   24
 -0.4849451723766313   28   28   25   25
 -0.4850043077691998   28   28   26   26
 -0.4860990158137226   28   28   27   27
 -0.4882781408940851   28   28   28   28
 -0.435648987032544   29   29    1    1
 -0.4397849740984644   29   29    2    2
 -0.4427962545303906   29   29    3    3
 -0.442985304513743   29   29    4    4
 -0.4431915881315081   29   29    5    5
 -0.4433412192887854   29   29    6    6
 -0.4447676589486192   29   29    7    7
 -0.446190945648068   29   29    8    8
 -0.4578013760709703   29   29    9    9
 -0.4578271259726572   29   29   10   10
 -0.4604000645849232   29   29   11   11
 -0.4610479937281922   29   29   12   12
 -0.4616148294608949   29   29   13   13
 -0.4618711277671266   29   29   14   14
 -0.4619537834329654   29   29   15   15
 -0.4627440297787424   29   29   16   16
 -0.4633140908331674   29   29   17   17
 -0.4653082524215543   29   29   18   18
 -0.4695830601045783   29   29   19   19
 -0.4724276186097922   29   29   20   20
 -0.4792471196144371   29   29   21   21
 -0.4801460365158468   29   29   22   22
 -0.4801642963497232   29   29   23   23
 -0.4849475417564691   29   29   24   24
 -0.4850686723380928   29   29   25   25
 -0.4851278227905466   29   29   26   26
 -0.4862228096220521   29   29   27   27
 -0.4884024896555902   29   29   28   28
 -0.4885268700847314   29   29   29   29
 -0.4358667579382877   30   30    1    1
 -0.4400048124889866   30   30    2    2
 -0.443017598190721   30   30    3    3
 -0.4432067426758106   30   30    4    4
 -0.4434131294100103   30   30    5    5
 -0.4435628353644606   30   30    6    6
 -0.4449899880686626   30   30    7    7
 -0.4464139862363873   30   30    8    8
 -0.4580302204463395   30   30    9    9
 -0.4580559832198098   30   30   10   10
 -0.4606302079848931   30   30   11   11
 -0.461278461013034   30   30   12   12
 -0.4618455800938785   30   30   13   13
 -0.4621020065177369   30   30   14   14
 -0.4621847035012414   30   30   15   15
 -0.4629753448729856   30   30   16   16
 -0.4635456908878164   30   30   17   17
 -0.4655408493117021   30   30   18   18
 -0.4698177938727375   30   30   19   19
 -0.472663774307304   30   30   20   20
 -0.4794866842236064   30   30   21   21
 -0.480386050472894   30   30   22   22
 -0.4804043194344412   30   30   23   23
 -0.4851899558755189   30   30   24   24
 -0.4853111470075336   30   30   25   25
 -0.4853703270279378   30   30   26   26
 -0.4864658612181681   30   30   27   27
 -0.4886466308236077   30   30   28   28
 -0.4887710734276638   30   30   29   29
 -0.4890153988422291   30   30   30   30
 -0.4372963003524536   31   31    1    1
 -0.4414479267674543   31   31    2    2
 -0.4444705937112586   31   31    3    3
 -0.4446603585466248   31   31    4    4
 -0.4448674221817004   31   31    5    5
 -0.4450176191371452   31   31    6    6
 -0.4464494525729812   31   31    7    7
 -0.4478781211261881   31   31    8    8
 -0.4595324539045528   31   31    9    9
 -0.4595583011739767   31   31   10   10
 -0.4621409688024311   31   31   11   11
 -0.4627913479509562   31   31   12   12
 -0.4633603270515549   31   31   13   13
 -0.4636175944949275   31   31   14   14
 -0.4637005627054602   31   31   15   15
 -0.4644937971985074   31   31   16   16
 -0.4650660138166915   31   31   17   17
 -0.4670677158999364   31   31   18   18
 -0.4713586878524662   31   31   19   19
 -0.4742140024463073   31   31   20   20
 -0.4810592899331305   31   31   21   21
 -0.4819616058962372   31   31   22   22
 -0.4819799347757638   31   31   23   23
 -0.4867812670003503   31   31   24   24
 -0.4869028556113199   31   31   25   25
 -0.4869622297285384   31   31   26   26
 -0.4880613570181795   31   31   27   27
 -0.4902492790448344   31   31   28   28
 -0.4903741297919237   31   31   29   29
 -0.4906192565374843   31   31   30   30
 -0.4922283745159795   31   31   31   31
 -0.4379990974219122   32   32    1    1
 -0.4421573960883717   32   32    2    2
 -0.4451849208859203   32   32    3    3
 -0.4453749907002449   32   32    4    4
 -0.4455823871158993   32   32    5    5
 -0.4457328254591171   32   32    6    6
 -0.4471669600540114   32   32    7    7
 -0.448597924679862   32   32    8    8
 -0.4602709876210853   32   32    9    9
 -0.4602968764307309   32   32   10   10
 -0.4628836947717323   32   32   11   11
 -0.4635351191716334   32   32   12   12
 -0.4641050127022059   32   32   13   13
 -0.4643626936107852   32   32   14   14
 -0.4644457951629793   32   32   15   15
 -0.4652403044961673   32   32   16   16
 -0.4658134407474744   32   32   17   17
 -0.4678183598493789   32   32   18   18
 -0.4721162280013756   32   32   19   19
 -0.47497613149004   32   32   20   20
 -0.4818324203230476   32   32   21   21
 -0.4827361864356619   32   32   22   22
 -0.482754544772293   32   32   23   23
 -0.4875635934175632   32   32   24   24
 -0.4876853774386458   32   32   25   25
 -0.4877448469784773   32   32   26   26
 -0.4888457407212933   32   32   27   27
 -0.4910371790484229   32   32   28   28
 -0.4911622304483398   32   32   29   29
 -0.4914077511472868   32   32   30   30
 -0.4930194552062012   32   32   31   31
 -0.4938118072750975   32   32   32   32
 -0.4416114547309367   33   33    1    1
 -0.4458040485835491   33   33    2    2
 -0.4488565426136715   33   33    3    3
 -0.4490481800113246   33   33    4    4
 -0.4492572869098598   33   33    5    5
 -0.4494089659794899   33   33    6    6
 -0.4508549284676754   33   33    7    7
 -0.4522976948427889   33   33    8    8
 -0.4640670302980029   33   33    9    9
 -0.4640931326232271   33   33   10   10
 -0.4667012855107978   33   33   11   11
 -0.4673580824735788   33   33   12   12
 -0.4679326761486781   33   33   13   13
 -0.4681924822568733   33   33   14   14
 -0.468276269181483   33   33   15   15
 -0.4690773311573904   33   33   16   16
 -0.4696551942972657   33   33   17   17
 -0.4716766487852347   33   33   18   18
 -0.4760099632098915   33   33   19   19
 -0.4788934534897871   33   33   20   20
 -0.4858062889349327   33   33   21   21
 -0.4867175087755152   33   33   22   22
 -0.4867360185208408   33   33   23   23
 -0.491584729352918   33   33   24   24
 -0.4917075177765239   33   33   25   25
 -0.4917674777859206   33   33   26   26
 -0.4928774510487213   33   33   27   27
 -0.4950869630620864   33   33   28   28
 -0.4952130458119334   33   33   29   29
 -0.4954605914202845   33   33   30   30
 -0.4970855878603282   33   33   31   31
 -0.4978844747801049   33   33   32   32
 -0.5019907312361297   33   33   33   33
 -0.4445598526769279   34   34    1    1
 -0.4487804381836765   34   34    2    2
 -0.4518533120455088   34   34    3    3
 -0.452046228901164   34   34    4    4
 -0.4522567318919961   34   34    5    5
 -0.4524094236397451   34   34    6    6
 -0.4538650400279473   34   34    7    7
 -0.4553174389643799   34   34    8    8
 -0.4671653518299171   34   34    9    9
 -0.4671916284260785   34   34   10   10
 -0.4698171945227817   34   34   11   11
 -0.4704783765593539   34   34   12   12
 -0.4710568064818904   34   34   13   13
 -0.4713183471732525   34   34   14   14
 -0.4714026934972931   34   34   15   15
 -0.4722091037255139   34   34   16   16
 -0.472790824941253   34   34   17   17
 -0.4748257755742979   34   34   18   18
 -0.4791880211673203   34   34   19   19
 -0.4820907629333979   34   34   20   20
 -0.489049751596738   34   34   21   21
 -0.4899670551533962   34   34   22   22
 -0.489985688478159   34   34   23   23
 -0.4948667714982872   34   34   24   24
 -0.4949903797129834   34   34   25   25
 -0.4950507400425408   34   34   26   26
 -0.49616812398922   34   34   27   27
 -0.4983923877048159   34   34   28   28
 -0.4985193122401661   34   34   29   29
 -0.4987685105750382   34   34   30   30
 -0.5004043562267921   34   34   31   31
 -0.5012085768772232   34   34   32   32
 -0.5053422485598481   34   34   33   33
 -0.5087161421301228   34   34   34   34
 -0.4454461376277223   35   35    1    1
 -0.4496751373927439   35   35    2    2
 -0.4527541374079906   35   35    3    3
 -0.4529474388672149   35   35    4    4
 -0.4531583615217474   35   35    5    5
 -0.4533113576793466   35   35    6    6
 -0.4547698760185262   35   35    7    7
 -0.4562251704915488   35   35    8    8
 -0.4680967036341036   35   35    9    9
 -0.4681230326159033   35   35   10   10
 -0.4707538331027676   35   35   11   11
 -0.4714163332873579   35   35   12   12
 -0.4719959163813569   35   35   13   13
 -0.4722579784863765   35   35   14   14
 -0.4723424929652272   35   35   15   15
 -0.4731505108717958   35   35   16   16
 -0.4737333918205966   35   35   17   17
 -0.4757723993789594   35   35   18   18
 -0.4801433416471258   35   35   19   19
 -0.4830518703872809   35   35   20   20
 -0.4900247326536644   35   35   21   21
 -0.4909438649682113   35   35   22   22
 -0.4909625354408075   35   35   23   23
 -0.4958533495025451   35   35   24   24
 -0.4959772041454777   35   35   25   25
 -0.4960376848108041   35   35   26   26
 -0.497157296400331   35   35   27   27
 -0.4993859944602472   35   35   28   28
 -0.4995131720353285   35   35   29   29
 -0.4997628671778467   35   35   30   30
 -0.5014019740898658   35   35   31   31
 -0.5022077980534507   35   35   32   32
 -0.50634971072091   35   35   33   33
 -0.5097303305645513   35   35   34   34
 -0.5107465409088335   35   35   35   35
 -0.4456893649412825   36   36    1    1
 -0.4499206738704541   36   36    2    2
 -0.453001355114561   36   36    3    3
 -0.4531947621223368   36   36    4    4
 -0.4534057999471364   36   36    5    5
 -0.4535588796453509   36   36    6    6
 -0.4550181943804747   36   36    7    7
 -0.4564742834891115   36   36    8    8
 -0.4683522988544765   36   36    9    9
 -0.4683786422127115   36   36   10   10
 -0.471010879197686   36   36   11   11
 -0.471673741127786   36   36   12   12
 -0.4722536406920089   36   36   13   13
 -0.4725158458910109   36   36   14   14
 -0.4726004065173708   36   36   15   15
 -0.4734088656266081   36   36   16   16
 -0.4739920648463632   36   36   17   17
 -0.4760321857656666   36   36   18   18
 -0.4804055147029626   36   36   19   19
 -0.48331563158941   36   36   20   20
 -0.490292301253397   36   36   21   21
 -0.4912119354425024   36   36   22   22
 -0.4912306161097518   36   36   23   23
 -0.4961241007066335   36   36   24   24
 -0.4962480229780167   36   36   25   25
 -0.4963085366676495   36   36   26   26
 -0.497428759599595   36   36   27   27
 -0.4996586745973092   36   36   28   28
 -0.4997859216152643   36   36   29   29
 -0.5000357530990226   36   36   30   30
 -0.5016757550139098   36   36   31   31
 -0.5024820189822031   36   36   32   32
 -0.5066261932615745   36   36   33   33
 -0.5100086590277939   36   36   34   34
 -0.5110254242542295   36   36   35   35
 -0.5113044598785234   36   36   36   36
 -0.4468642219976119   37   37    1    1
 -0.451106684845957   37   37    2    2
 -0.4541954869033087   37   37    3    3
 -0.4543894037405883   37   37    4    4
 -0.4546009978705123   37   37    5    5
 -0.454754481093643   37   37    6    6
 -0.4562176426475354   37   37    7    7
 -0.4576775700720452   37   37    8    8
 -0.4695868964160085   37   37    9    9
 -0.4696133092165116   37   37   10   10
 -0.4722524848956506   37   37   11   11
 -0.4729170941593808   37   37   12   12
 -0.4734985223647349   37   37   13   13
 -0.4737614187483433   37   37   14   14
 -0.473846202280288   37   37   15   15
 -0.4746567925238174   37   37   16   16
 -0.4752415290827429   37   37   17   17
 -0.4772870278518366   37   37   18   18
 -0.4816718850793855   37   37   19   19
 -0.484589673163819   37   37   20   20
 -0.491584733640397   37   37   21   21
 -0.4925067920262666   37   37   22   22
 -0.4925255219365885   37   37   23   23
 -0.4974319059772553   37   37   24   24
 -0.4975561549132763   37   37   25   25
 -0.4976168281196955   37   37   26   26
 -0.4987400040092834   37   37   27   27
 -0.5009757971624488   37   37   28   28
 -0.501103379609222   37   37   29   29
 -0.5013538696599209   37   37   30   30
 -0.5029981946930463   37   37   31   31
 -0.5038065840091422   37   37   32   32
 -0.5079616825168614   37   37   33   33
 -0.5113530646137942   37   37   34   34
 -0.5123725100787431   37   37   35   35
 -0.5126522812533955   37   37   36   36
 -0.5140036555455626   37   37   37   37
 -0.4481857922339766   38   38    1    1
 -0.4524408018747326   38   38    2    2
 -0.4555387388519639   38   38    3    3
 -0.4557332291849675   38   38    4    4
 -0.4559454490899939   38   38    5    5
 -0.4560993862292125   38   38    6    6
 -0.4575668749828793   38   38    7    7
 -0.4590311200424481   38   38    8    8
 -0.4709756674008864   38   38    9    9
 -0.4710021583154323   38   38   10   10
 -0.4736491391753274   38   38   11   11
 -0.4743157139752954   38   38   12   12
 -0.4748988617146219   38   38   13   13
 -0.4751625355962235   38   38   14   14
 -0.4752475698696392   38   38   15   15
 -0.4760605573781251   38   38   16   16
 -0.4766470232552514   38   38   17   17
 -0.4786985714464262   38   38   18   18
 -0.4830963965879798   38   38   19   19
 -0.4860228138302168   38   38   20   20
 -0.4930385617175839   38   38   21   21
 -0.493963347027783   38   38   22   22
 -0.493982132330528   38   38   23   23
 -0.4989030266649197   38   38   24   24
 -0.4990276430586328   38   38   25   25
 -0.4990884957018918   38   38   26   26