 &FCI NORB=  36,NELEC=56,MS2=0,
  ORBSYM=1,1,1,1,1,1,1,1,1,1,1,1,1,1,1,1,1,1,1,1,1,1,1,1,1,1,1,1,1,1,1,1,1,1,1,1,
  ISYM=1,
 &END
 -0.5030589078462885    1    1    1    1
 -0.5051709069450773    2    2    1    1
 -0.507291772878592    2    2    2    2
 -0.5096125274996627    3    3    1    1
 -0.5117520407495495    3    3    2    2
 -0.5162515246901228    3    3    3    3
 -0.514431151361297    4    4    1    1
 -0.5165908947057005    4    4    2    2
 -0.5211329233631148    4    4    3    3
 -0.5260604779346659    4    4    4    4
 -0.5183600341309685    5    5    1    1
 -0.5205362721576833    5    5    2    2
 -0.5251129898071701    5    5    3    3
 -0.5300781777611508    5    5    4    4
 -0.5341265621050492    5    5    5    5
 -0.5217541599610082    6    6    1    1
 -0.5239446475926548    6    6    2    2
 -0.5285513327445881    6    6    3    3
 -0.5335490318328692    6    6    4    4
 -0.5376239242502431    6    6    5    5
 -0.5411441864772574    6    6    6    6
 -0.5239614324978329    7    7    1    1
 -0.5261611869519844    7    7    2    2
 -0.5307873606109618    7    7    3    3
 -0.5358062023844218    7    7    4    4
 -0.5398983335682754    7    7    5    5
 -0.5434334882077176    7    7    6    6
 -0.5457324747921301    7    7    7    7
 -0.5271093379816428    8    8    1    1
 -0.5293223083304763    8    8    2    2
 -0.5339762755569319    8    8    3    3
 -0.5390252700068319    8    8    4    4
 -0.5431419862868302    8    8    5    5
 -0.5466983797655941    8    8    6    6
 -0.549011178420948    8    8    7    7
 -0.5523095801582389    8    8    8    8
 -0.5279202015979821    9    9    1    1
 -0.5301365762066353    9    9    2    2
 -0.5347977027308374    9    9    3    3
 -0.5398544641573464    9    9    4    4
 -0.5439775132704208    9    9    5    5
 -0.5475393776256604    9    9    6    6
 -0.5498557341088622    9    9    7    7
 -0.5531592098483916    9    9    8    8
 -0.5540101465421459    9    9    9    9
 -0.5297944933128729   10   10    1    1
 -0.5320187367860884   10   10    2    2
 -0.536696411854559   10   10    3    3
 -0.5417711264603877   10   10    4    4
 -0.5459088137645549   10   10    5    5
 -0.549483323918971   10   10    6    6
 -0.5518079042355326   10   10    7    7
 -0.5551231084089999   10   10    8    8
 -0.5559770662100922   10   10    9    9
 -0.5579509690948702   10   10   10   10
 -0.530867599209178   11   11    1    1
 -0.5330963479175669   11   11    2    2
 -0.5377834976800184   11   11    3    3
 -0.5428684911887697   11   11    4    4
 -0.5470145594344137   11   11    5    5
 -0.5505963098073892   11   11    6    6
 -0.5529255985927544   11   11    7    7
 -0.556247517757017   11   11    8    8
 -0.5571032052611604   11   11    9    9
 -0.5590811063128712   11   11   10   10
 -0.5602135326390596   11   11   11   11
 -0.5349485997470743   12   12    1    1
 -0.537194481775883   12   12    2    2
 -0.5419176636124907   12   12    3    3
 -0.547041747586125   12   12    4    4
 -0.5512196883867446   12   12    5    5
 -0.5548289731679614   12   12    6    6
 -0.5571761681672304   12   12    7    7
 -0.5605236243089171   12   12    8    8
 -0.5613858898396153   12   12    9    9
 -0.5633789958412382   12   12   10   10
 -0.5645201276006707   12   12   11   11
 -0.5688598291530419   12   12   12   12
 -0.5352974578355003   13   13    1    1
 -0.5375448044799969   13   13    2    2
 -0.5422710664633469   13   13    3    3
 -0.5473984920255764   13   13    4    4
 -0.5515791574028039   13   13    5    5
 -0.5551907959207909   13   13    6    6
 -0.5575395216053649   13   13    7    7
 -0.5608891607365039   13   13    8    8
 -0.5617519885797398   13   13    9    9
 -0.5637463943532476   13   13   10   10
 -0.5648882702833244   13   13   11   11
 -0.5692308019019647   13   13   12   12
 -0.5696020165747737   13   13   13   13
 -0.5353534838117419   14   14    1    1
 -0.5376010656708614   14   14    2    2
 -0.5423278223201914   14   14    3    3
 -0.5474557845354885   14   14    4    4
 -0.5516368874747772   14   14    5    5
 -0.5552489039986204   14   14    6    6
 -0.5575978755084781   14   14    7    7
 -0.5609478652237634   14   14    8    8
 -0.5618107833733731   14   14    9    9
 -0.563805397887888   14   14   10   10
 -0.5649473933304207   14   14   11   11
 -0.5692903794525705   14   14   12   12
 -0.5696616329779168   14   14   13   13
 -0.569721255620707   14   14   14   14
 -0.5358473139334292   15   15    1    1
 -0.5380969690463083   15   15    2    2
 -0.5428280858331586   15   15    3    3
 -0.5479607782730292   15   15    4    4
 -0.5521457380184018   15   15    5    5
 -0.5557610864016862   15   15    6    6
 -0.5581122246909179   15   15    7    7
 -0.5614653045622942   15   15    8    8
 -0.5623290186999524   15   15    9    9
 -0.5643254731216655   15   15   10   10
 -0.565468521983603   15   15   11   11
 -0.5698155142389529   15   15   12   12
 -0.5701871102224677   15   15   13   13
 -0.5702467878634185   15   15   14   14
 -0.570772804876771   15   15   15   15
 -0.536174184955971   16   16    1    1
 -0.5384252123759383   16   16    2    2
 -0.5431592151807673   16   16    3    3
 -0.5482950386028834   16   16    4    4
 -0.5524825512061984   16   16    5    5
 -0.556100104980071   16   16    6    6
 -0.5584526774819166   16   16    7    7
 -0.5618078027580522   16   16    8    8
 -0.5626720437680415   16   16    9    9
 -0.564669716042455   16   16   10   10
 -0.5658134621730745   16   16   11   11
 -0.570163106127456   16   16   12   12
 -0.5705349287874063   16   16   13   13
 -0.5705946428321815   16   16   14   14
 -0.5711209807199968   16   16   15   15
 -0.5714693689531908   16   16   16   16
 -0.5366898346538999   17   17    1    1
 -0.5389430269330523   17   17    2    2
 -0.5436815825253611   17   17    3    3
 -0.5488223451740768   17   17    4    4
 -0.5530138849940491   17   17    5    5
 -0.5566349178434966   17   17    6    6
 -0.558989752862513   17   17    7    7
 -0.5623481048313609   17   17    8    8
 -0.5632131769996346   17   17    9    9
 -0.5652127704763993   17   17   10   10
 -0.5663576165711038   17   17   11   11
 -0.5707114436671848   17   17   12   12
 -0.5710836239166045   17   17   13   13
 -0.5711433953895998   17   17   14   14
 -0.5716702394673445   17   17   15   15
 -0.5720189627526395   17   17   16   16
 -0.5725690851077044   17   17   17   17
 -0.5457403733319875   18   18    1    1
 -0.5480315626115579   18   18    2    2
 -0.5528500274510656   18   18    3    3
 -0.558077482017874   18   18    4    4
 -0.562339706413577   18   18    5    5
 -0.5660218030204174   18   18    6    6
 -0.5684163491053864   18   18    7    7
 -0.5718313350785067   18   18    8    8
 -0.5727109955035588   18   18    9    9
 -0.5747443093844254   18   18   10   10
 -0.5759084617398257   18   18   11   11
 -0.5803357101641794   18   18   12   12
 -0.5807141667235366   18   18   13   13
 -0.5807749461605239   18   18   14   14
 -0.5813106747417474   18   18   15   15
 -0.5816652787674211   18   18   16   16
 -0.5822246781822152   18   18   17   17
 -0.5920430996036373   18   18   18   18
 -0.5481290971247528   19   19    1    1
 -0.5504303150161196   19   19    2    2
 -0.5552698704367336   19   19    3    3
 -0.5605202057463081   19   19    4    4
 -0.5648010860401665   19   19    5    5
 -0.5684992993065061   19   19    6    6
 -0.5709043263994518   19   19    7    7
 -0.5743342598799301   19   19    8    8
 -0.5752177706079642   19   19    9    9
 -0.5772599843714175   19   19   10   10
 -0.5784292322604554   19   19   11   11
 -0.5828758588986347   19   19   12   12
 -0.5832559719749587   19   19   13   13
 -0.5833170174455664   19   19   14   14
 -0.583855090928635   19   19   15   15
 -0.584211247067941   19   19   16   16
 -0.5847730949926073   19   19   17   17
 -0.594634491971644   19   19   18   18
 -0.5972372269503652   19   19   19   19
 -0.5533290485942343   20   20    1    1
 -0.5556520975130336   20   20    2    2
 -0.5605375644779408   20   20    3    3
 -0.5658377082887452   20   20    4    4
 -0.5701592001281163   20   20    5    5
 -0.5738924973365594   20   20    6    6
 -0.5763203402665619   20   20    7    7
 -0.5797828125918774   20   20    8    8
 -0.5806747049455772   20   20    9    9
 -0.5827362926348372   20   20   10   10
 -0.5839166328601708   20   20   11   11
 -0.5884054434342929   20   20   12   12
 -0.5887891625398537   20   20   13   13
 -0.5888507871322162   20   20   14   14
 -0.5893939651718821   20   20   15   15
 -0.5897535000674878   20   20   16   16
 -0.5903206780904046   20   20   17   17
 -0.600275627456974   20   20   18   18
 -0.6029030538736215   20   20   19   19
 -0.6086226309538938   20   20   20   20
 -0.567813011158753   21   21    1    1
 -0.5701968682958465   21   21    2    2
 -0.5752102174328712   21   21    3    3
 -0.5806490980129404   21   21    4    4
 -0.5850837093897427   21   21    5    5
 -0.5889147295302219   21   21    6    6
 -0.5914061237706065   21   21    7    7
 -0.5949592299053486   21   21    8    8
 -0.5958744684677744   21   21    9    9
 -0.5979900203560775   21   21   10   10
 -0.5992012572127747   21   21   11   11
 -0.6038075670659966   21   21   12   12
 -0.6042013304176969   21   21   13   13
 -0.604264568097771   21   21   14   14
 -0.6048219643867995   21   21   15   15
 -0.6051909104817302   21   21   16   16
 -0.6057729349784985   21   21   17   17
 -0.6159884654844885   21   21   18   18
 -0.6186846675165794   21   21   19   19
 -0.6245539604675907   21   21   20   20
 -0.6409023090784515   21   21   21   21
 -0.5711573742053321   22   22    1    1
 -0.5735552720275824   22   22    2    2
 -0.578598149300215   22   22    3    3
 -0.5840690643544321   22   22    4    4
 -0.5885297951580932   22   22    5    5
 -0.5923833796321413   22   22    6    6
 -0.5948894479406932   22   22    7    7
 -0.5984634815227182   22   22    8    8
 -0.5993841107506743   22   22    9    9
 -0.6015121230324861   22   22   10   10
 -0.6027304939556888   22   22   11   11
 -0.6073639345229863   22   22   12   12
 -0.6077600171022786   22   22   13   13
 -0.6078236272460974   22   22   14   14
 -0.6083843065446988   22   22   15   15
 -0.6087554256960086   22   22   16   16
 -0.6093408782600824   22   22   17   17
 -0.6196165772406478   22   22   18   18
 -0.6223286596387482   22   22   19   19
 -0.6282325221506346   22   22   20   20
 -0.6446771609343028   22   22   21   21
 -0.6484742462980255   22   22   22   22
 -0.5820682528745714   23   23    1    1
 -0.5845119579880892   23   23    2    2
 -0.5896511698692737   23   23    3    3
 -0.5952265963822621   23   23    4    4
 -0.5997725409899867   23   23    5    5
 -0.6036997408886741   23   23    6    6
 -0.6062536828805334   23   23    7    7
 -0.6098959915974589   23   23    8    8
 -0.6108342077012205   23   23    9    9
 -0.6130028716227768   23   23   10   10
 -0.6142445172123279   23   23   11   11
 -0.6189664708762501   23   23   12   12
 -0.619370119862212   23   23   13   13
 -0.6194349451572181   23   23   14   14
 -0.6200063351707218   23   23   15   15
 -0.6203845438497425   23   23   16   16
 -0.6209811803749831   23   23   17   17
 -0.631453177100937   23   23   18   18
 -0.6342170686909048   23   23   19   19
 -0.6402337133018348   23   23   20   20
 -0.6569924957289738   23   23   21   21
 -0.6608621172089604   23   23   22   22
 -0.6734866349051484   23   23   23   23
 -0.5950354036946689   24   24    1    1
 -0.5975335489749717   24   24    2    2
 -0.6027872507552885   24   24    3    3
 -0.6084868850327845   24   24    4    4
 -0.6131341029002292   24   24    5    5
 -0.617148791840168   24   24    6    6
 -0.6197596298246033   24   24    7    7
 -0.6234830808581429   24   24    8    8
 -0.6244421982731498   24   24    9    9
 -0.626659175072122   24   24   10   10
 -0.6279284816886151   24   24   11   11
 -0.6327556296919008   24   24   12   12
 -0.6331682710550514   24   24   13   13
 -0.6332345405095234   24   24   14   14
 -0.6338186597870706   24   24   15   15
 -0.6342052940913649   24   24   16   16
 -0.6348152223152498   24   24   17   17
 -0.6455205112028399   24   24   18   18
 -0.6483459759827567   24   24   19   19
 -0.6544966576893634   24   24   20   20
 -0.6716287875001137   24   24   21   21
 -0.6755846153057327   24   24   22   22
 -0.6884903784128996   24   24   23   23
 -0.7038283710468836   24   24   24   24
 -0.5969494380813368   25   25    1    1
 -0.5994556190784049   25   25    2    2
 -0.6047262203000027   25   25    3    3
 -0.6104441884378552   25   25    4    4
 -0.6151063548860825   25   25    5    5
 -0.6191339577680071   25   25    6    6
 -0.6217531939647996   25   25    7    7
 -0.6254886221231808   25   25    8    8
 -0.6264508247053925   25   25    9    9
 -0.6286749327940347   25   25   10   10
 -0.6299483223549983   25   25   11   11
 -0.6347909977154974   25   25   12   12
 -0.6352049664110277   25   25   13   13
 -0.6352714490326725   25   25   14   14
 -0.6358574472309968   25   25   15   15
 -0.6362453252114638   25   25   16   16
 -0.6368572153750697   25   25   17   17
 -0.6475969396776332   25   25   18   18
 -0.6504314930541503   25   25   19   19
 -0.6566019594932532   25   25   20   20
 -0.6737891977654009   25   25   21   21
 -0.6777577501759774   25   25   22   22
 -0.6907050269043843   25   25   23   23
 -0.706092356846941   25   25   24   24
 -0.7083636251492587   25   25   25   25
 -0.5986837098598028   26   26    1    1
 -0.6011971718738175   26   26    2    2
 -0.6064830853720857   26   26    3    3
 -0.6122176654876688   26   26    4    4
 -0.6168933765733173   26   26    5    5
 -0.6209326805434203   26   26    6    6
 -0.6235595262078284   26   26    7    7
 -0.6273058066213961   26   26    8    8
 -0.6282708046175526   26   26    9    9
 -0.6305013742381846   26   26   10   10
 -0.6317784632809429   26   26   11   11
 -0.6366352076976706   26   26   12   12
 -0.6370503790649517   26   26   13   13
 -0.6371170548334982   26   26   14   14
 -0.6377047554877974   26   26   15   15
 -0.6380937603406461   26   26   16   16
 -0.6387074281821834   26   26   17   17
 -0.6494783537885396   26   26   18   18
 -0.6523211421772903   26   26   19   19
 -0.658509535203006   26   26   20   20
 -0.6757467062506682   26   26   21   21
 -0.679726788194582   26   26   22   22
 -0.6927116796608639   26   26   23   23
 -0.7081437132422265   26   26   24   24
 -0.710421580087514   26   26   25   25
 -0.7124855138456543   26   26   26   26
 -0.6842495652277312   27   27    1    1
 -0.6871222595435809   27   27    2    2
 -0.6931636532769569   27   27    3    3
 -0.6997178385441161   27   27    4    4
 -0.7050618177184195   27   27    5    5
 -0.709678432367936   27   27    6    6
 -0.7126807155003975   27   27    7    7
 -0.7169624266977929   27   27    8    8
 -0.7180653453983373   27   27    9    9
 -0.7206147154045548   27   27   10   10
 -0.7220743302360141   27   27   11   11
 -0.7276252166236633   27   27   12   12
 -0.7280997256555253   27   27   13   13
 -0.7281759309453767   27   27   14   14
 -0.7288476277204275   27   27   15   15
 -0.7292922304330945   27   27   16   16
 -0.7299936057116443   27   27   17   17
 -0.7423039476198537   27   27   18   18
 -0.7455530367248382   27   27   19   19
 -0.7526258953437839   27   27   20   20
 -0.7723266598724878   27   27   21   21
 -0.7768755882880137   27   27   22   22
 -0.7917163233773538   27   27   23   23
 -0.8093539542243662   27   27   24   24
 -0.8119573813309759   27   27   25   25
 -0.814316299326251   27   27   26   26
 -0.9307010773724309   27   27   27   27
 -0.6845564683486373   28   28    1    1
 -0.6874304511400603   28   28    2    2
 -0.6934745545903083   28   28    3    3
 -0.7000316795742252   28   28    4    4
 -0.7053780556574492   28   28    5    5
 -0.7099967409746225   28   28    6    6
 -0.7130003707064974   28   28    7    7
 -0.7172840023589374   28   28    8    8
 -0.7183874157462284   28   28    9    9
 -0.7209379292089434   28   28   10   10
 -0.7223981987143256   28   28   11   11
 -0.7279515748139788   28   28   12   12
 -0.7284262966750629   28   28   13   13
 -0.7285025361449013   28   28   14   14
 -0.7291745341928314   28   28   15   15
 -0.729619336320985   28   28   16   16
 -0.7303210261839684   28   28   17   17
 -0.7426368895898054   28   28   18   18
 -0.7458874359928825   28   28   19   19
 -0.7529634669666155   28   28   20   20
 -0.7726730677831674   28   28   21   21
 -0.7772240365073736   28   28   22   22
 -0.7920714280392558   28   28   23   23
 -0.8097169698068264   28   28   24   24
 -0.812321564615901   28   28   25   25
 -0.814681540645162   28   28   26   26
 -0.9311185201883153   28   28   27   27
 -0.9315361502377901   28   28   28   28
 -0.6861627599659957   29   29    1    1
 -0.6890434864735033   29   29    2    2
 -0.6951017722347153   29   29    3    3
 -0.701674283319535   29   29    4    4
 -0.7070332045169793   29   29    5    5
 -0.7116627274433948   29   29    6    6
 -0.7146734051040864   29   29    7    7
 -0.7189670881721997   29   29    8    8
 -0.7200730906865481   29   29    9    9
 -0.7226295888540822   29   29   10   10
 -0.7240932848389062   29   29   11   11
 -0.7296596917722296   29   29   12   12
 -0.7301355275541972   29   29   13   13
 -0.7302119459177092   29   29   14   14
 -0.7308855207892924   29   29   15   15
 -0.7313313666325563   29   29   16   16
 -0.7320347029901636   29   29   17   17
 -0.7443794652072222   29   29   18   18
 -0.7476376389218222   29   29   19   19
 -0.7547302735940998   29   29   20   20
 -0.7744861224092272   29   29   21   21
 -0.7790477698476822   29   29   22   22
 -0.7939300003470712   29   29   23   23
 -0.8116169468593712   29   29   24   24
 -0.8142276532735537   29   29   25   25
 -0.8165931669171504   29   29   26   26
 -0.9333033624079113   29   29   27   27
 -0.9337219724140131   29   29   28   28
 -0.9359129235576786   29   29   29   29
 -0.6881754628176732   30   30    1    1
 -0.6910646392831132   30   30    2    2
 -0.6971406956517369   30   30    3    3
 -0.7037324857073415   30   30    4    4
 -0.7091071260848482   30   30    5    5
 -0.7137502286669075   30   30    6    6
 -0.7167697374677698   30   30    7    7
 -0.7210760150814627   30   30    8    8
 -0.7221852618033729   30   30    9    9
 -0.7247492588785313   30   30   10   10
 -0.7262172482835968   30   30   11   11
 -0.731799983009336   30   30   12   12
 -0.7322772145476625   30   30   13   13
 -0.7323538570671139   30   30   14   14
 -0.7330294077178329   30   30   15   15
 -0.7334765613487713   30   30   16   16
 -0.7341819607840844   30   30   17   17
 -0.7465629335616211   30   30   18   18
 -0.7498306643899399   30   30   19   19
 -0.7569441036975952   30   30   20   20
 -0.7767579018150856   30   30   21   21
 -0.7813329298118329   30   30   22   22
 -0.7962588139594713   30   30   23   23
 -0.8139976411184047   30   30   24   24
 -0.8166160054478098   30   30   25   25
 -0.8189884577892405   30   30   26   26
 -0.9360409961714977   30   30   27   27
 -0.9364608340751222   30   30   28   28
 -0.9386582118771143   30   30   29   29
 -0.9414115528772716   30   30   30   30
 -0.6886234291345   31   31    1    1
 -0.6915144863030598   31   31    2    2
 -0.6975944978673267   31   31    3    3
 -0.7041905788342934   31   31    4    4
 -0.7095687178222333   31   31    5    5
 -0.7142148428217934   31   31    6    6
 -0.717236317165325   31   31    7    7
 -0.7215453979410398   31   31    8    8
 -0.7226553667246848   31   31    9    9
 -0.7252210328281479   31   31   10   10
 -0.7266899778177155   31   31   11   11
 -0.7322763466124502   31   31   12   12
 -0.7327538888036058   31   31   13   13
 -0.7328305812133382   31   31   14   14
 -0.7335065716122801   31   31   15   15
 -0.7339540163168994   31   31   16   16
 -0.7346598749304367   31   31   17   17
 -0.7470489070752039   31   31   18   18
 -0.7503187650257797   31   31   19   19
 -0.75743683481124   31   31   20   20
 -0.7772635306774073   31   31   21   21
 -0.7818415367786523   31   31   22   22
 -0.796777136898028   31   31   23   23
 -0.8145275111078176   31   31   24   24
 -0.8171475798557731   31   31   25   25
 -0.8195215765398818   31   31   26   26
 -0.9366503100167446   31   31   27   27
 -0.9370704212129366   31   31   28   28
 -0.9392692293932171   31   31   29   29
 -0.9420243626746945   31   31   30   30
 -0.9426375713793186   31   31   31   31
 -0.6920816276197174   32   32    1    1
 -0.6949872033903143   32   32    2    2
 -0.7010977481689507   32   32    3    3
 -0.7077269539995849   32   32    4    4
 -0.7131321014675076   32   32    5    5
 -0.7178015588454849   32   32    6    6
 -0.7208382067331567   32   32    7    7
 -0.725168927284663   32   32    8    8
 -0.7262844702213267   32   32    9    9
 -0.7288630208452072   32   32   10   10
 -0.7303393427306555   32   32   11   11
 -0.7359537657147868   32   32   12   12
 -0.7364337060754095   32   32   13   13
 -0.7365107836268084   32   32   14   14
 -0.7371901687824123   32   32   15   15
 -0.7376398605099098   32   32   16   16
 -0.7383492638753171   32   32   17   17
 -0.7508005125093637   32   32   18   18
 -0.7540867913618913   32   32   19   19
 -0.7612406073870356   32   32   20   20
 -0.7811668709511789   32   32   21   21
 -0.7857678673444977   32   32   22   22
 -0.8007784725646634   32   32   23   23
 -0.8186179873912361   32   32   24   24
 -0.8212512138642878   32   32   25   25
 -0.8236371325240214   32   32   26   26
 -0.9413540748702718   32   32   27   27
 -0.9417762958231769   32   32   28   28
 -0.9439861461998111   32   32   29   29
 -0.946755115487061   32   32   30   30
 -0.9473714036649119   32   32   31   31
 -0.9521290087862044   32   32   32   32
 -0.7231496139304846   33   33    1    1
 -0.7261856228532751   33   33    2    2
 -0.7325704738899564   33   33    3    3
 -0.7394972690045394   33   33    4    4
 -0.745145056994677   33   33    5    5
 -0.7500241292968313   33   33    6    6
 -0.7531970942477507   33   33    7    7
 -0.7577222236109354   33   33    8    8
 -0.7588878439825464   33   33    9    9
 -0.7615821473909067   33   33   10   10
 -0.7631247423087504   33   33   11   11
 -0.7689912003266879   33   33   12   12
 -0.7694926855166467   33   33   13   13
 -0.7695732231285591   33   33   14   14
 -0.7702831063177354   33   33   15   15
 -0.7707529849941077   33   33   16   16
 -0.7714942339296987   33   33   17   17
 -0.7845044270677991   33   33   18   18
 -0.7879382290770313   33   33   19   19
 -0.795413184472835   33   33   20   20
 -0.8162339507356914   33   33   21   21
 -0.8210414887958585   33   33   22   22
 -0.8367259296719428   33   33   23   23
 -0.8553662717135494   33   33   24   24
 -0.8581177054048726   33   33   25   25
 -0.8606107294771776   33   33   26   26
 -0.9836120605536085   33   33   27   27
 -0.9840532352747707   33   33   28   28
 -0.9863622872462896   33   33   29   29
 -0.9892555573334424   33   33   30   30
 -0.9898995110812331   33   33   31   31
 -0.9948706881352017   33   33   32   32
 -1.039531068770174   33   33   33   33
 -0.7426732305509566   34   34    1    1
 -0.7457912057406483   34   34    2    2
 -0.7523484351917237   34   34    3    3
 -0.7594622401444099   34   34    4    4
 -0.7652625072970184   34   34    5    5
 -0.7702733049506847   34   34    6    6
 -0.7735319337117736   34   34    7    7
 -0.7781792326635788   34   34    8    8
 -0.7793763224916092   34   34    9    9
 -0.7821433667903617   34   34   10   10
 -0.7837276087355929   34   34   11   11
 -0.7897524495764705   34   34   12   12
 -0.790267473879776   34   34   13   13
 -0.7903501858487346   34   34   14   14
 -0.7910792344871677   34   34   15   15
 -0.7915617989632125   34   34   16   16
 -0.7923230601614945   34   34   17   17
 -0.8056845029139118   34   34   18   18
 -0.8092110108206338   34   34   19   19
 -0.8168877753035083   34   34   20   20
 -0.8382706612860323   34   34   21   21
 -0.843207993413937   34   34   22   22
 -0.8593158833310944   34   34   23   23
 -0.8784594779288584   34   34   24   24
 -0.8812851949157976   34   34   25   25
 -0.8838455257324825   34   34   26   26
 -1.01016765071585   34   34   27   27
 -1.010620736286376   34   34   28   28
 -1.012992128117559   34   34   29   29
 -1.01596351080392   34   34   30   30
 -1.016624850035781   34   34   31   31
 -1.021730239088324   34   34   32   32
 -1.067596362121336   34   34   33   33
 -1.096419363168352   34   34   34   34
 -0.7570206460040997   35   35    1    1
 -0.7601988561444788   35   35    2    2
 -0.7668827621624292   35   35    3    3
 -0.7741339959477571   35   35    4    4
 -0.7800463162068388   35   35    5    5
 -0.7851539155126064   35   35    6    6
 -0.7884754964560546   35   35    7    7
 -0.793212574769837   35   35    8    8
 -0.7944327907109289   35   35    9    9
 -0.7972532904628987   35   35   10   10
 -0.7988681377624519   35   35   11   11
 -0.8050093701615915   35   35   12   12
 -0.805534344019215   35   35   13   13
 -0.8056186538685506   35   35   14   14
 -0.8063617867142377   35   35   15   15
 -0.8068536736658155   35   35   16   16
 -0.8076296413732738   35   35   17   17
 -0.8212492086444382   35   35   18   18
 -0.8248438437866052   35   35   19   19
 -0.8326689126984548   35   35   20   20
 -0.8544648863434368   35   35   21   21
 -0.8594976008715076   35   35   22   22
 -0.8759166728526039   35   35   23   23
 -0.895430095113009   35   35   24   24
 -0.8983104010280214   35   35   25   25
 -0.9009201938805161   35   35   26   26
 -1.029682686893193   35   35   27   27
 -1.030144525447734   35   35   28   28
 -1.03256172927591   35   35   29   29
 -1.035590514949369   35   35   30   30
 -1.036264630336778   35   35   31   31
 -1.041468648415889   35   35   32   32
 -1.088220841250947   35   35   33   33
 -1.117600662651271   35   35   34   34
 -1.139191155425422   35   35   35   35
 -0.7642942398501508   36   36    1    1
 -0.7675029868191364   36   36    2    2
 -0.774251113037601   36   36    3    3
 -0.7815720180131607   36   36    4    4
 -0.7875411449346225   36   36    5    5
 -0.7926978189955828   36   36    6    6
 -0.7960513143007291   36   36    7    7
 -0.8008339073357456   36   36    8    8
 -0.8020658473364214   36   36    9    9
 -0.8049134469696786   36   36   10   10
 -0.8065438100196176   36   36   11   11
 -0.8127440485111553   36   36   12   12
 -0.8132740664143282   36   36   13   13
 -0.8133591863282301   36   36   14   14
 -0.8141094593312189   36   36   15   15
 -0.8146060724232567   36   36   16   16
 -0.8153894957714184   36   36   17   17
 -0.8291399223542968   36   36   18   18
 -0.8327690954132126   36   36   19   19
 -0.8406693490289174   36   36   20   20
 -0.8626747424045365   36   36   21   21
 -0.8677558121810588   36   36   22   22
 -0.8843326416309241   36   36   23   23
 -0.9040335524477084   36   36   24   24
 -0.9069415328726419   36   36   25   25
 -0.9095764010957115   36   36   26   26
 -1.039576067865435   36   36   27   27
 -1.040042343849902   36   36   28   28
 -1.042482772617822   36   36   29   29
 -1.045540659422079   36   36   30   30
 -1.046221251834334   36   36   31   31
 -1.051475271077977   36   36   32   32
 -1.098676667595774   36   36   33   33
 -1.128338775733274   36   36   34   34
 -1.150136713939996   36   36   35   35
 -1.161187439397471   36   36   36   36
 -0.2515294539231442    1    1  0  0
 -0.253645886439296    2    2  0  0
 -0.2581257623450614    3    3  0  0
 -0.263030238967333    4    4  0  0
 -0.2670632810525246    5    5  0  0
 -0.2705720932386287    6    6  0  0
 -0.272866237396065    7    7  0  0
 -0.2761547900791195    8    8  0  0
 -0.2770050732710729    9    9  0  0
 -0.2789754845474351   10   10  0  0
 -0.2801067663195298   11   11  0  0
 -0.2844299145765209   12   12  0  0
 -0.2848010082873869   13   13  0  0
 -0.2848606278103535   14   14  0  0
 -0.2853864024383855   15   15  0  0
 -0.2857346844765954   16   16  0  0
 -0.2862845425538522   17   17  0  0
 -0.2960215498018187   18   18  0  0
 -0.2986186134751826   19   19  0  0
 -0.3043113154769469   20   20  0  0
 -0.3204511545392257   21   21  0  0
 -0.3242371231490128   22   22  0  0
 -0.3367433174525742   23   23  0  0
 -0.3519141855234418   24   24  0  0
 -0.3541818125746293   25   25  0  0
 -0.3562427569228271   26   26  0  0
 -0.4653505386862155   27   27  0  0
 -0.4657680751188951   28   28  0  0
 -0.4679564617788393   29   29  0  0
 -0.4707057764386358   30   30  0  0
 -0.4713187856896593   31   31  0  0
 -0.4760645043931022   32   32  0  0
 -0.5197655343850871   33   33  0  0
 -0.5482096815841759   34   34  0  0
 -0.5695955777127112   35   35  0  0
 -0.5805937196987354   36   36  0  0
 -4400.792322197538  0  0  0  0
