 &FCI NORB=  37,NELEC=60,MS2=0,
  ORBSYM=1,1,1,1,1,1,1,1,1,1,1,1,1,1,1,1,1,1,1,1,1,1,1,1,1,1,1,1,1,1,1,1,1,1,1,1,1,
  ISYM=1,
 &END
 -0.4826926359184951    1    1    1    1
 -0.4899634792665694    2    2    1    1
 -0.4973438439933812    2    2    2    2
 -0.4900289048582854    3    3    1    1
 -0.4974102550967726    3    3    2    2
 -0.4974766750681429    3    3    3    3
 -0.490360452195359    4    4    1    1
 -0.4977467965617259    4    4    2    2
 -0.4978132614720056    4    4    3    3
 -0.4981500756059569    4    4    4    4
 -0.4920599110372922    5    5    1    1
 -0.4994718545077197    5    5    2    2
 -0.4995385497676921    5    5    3    3
 -0.4998765312098051    5    5    4    4
 -0.5016089702493649    5    5    5    5
 -0.4934788298423478    6    6    1    1
 -0.5009121466165872    6    6    2    2
 -0.5009790342010234    6    6    3    3
 -0.5013179902566199    6    6    4    4
 -0.5030554250096624    6    6    5    5
 -0.5045060508105466    6    6    6    6
 -0.4939732580913824    7    7    1    1
 -0.5014140224835841    7    7    2    2
 -0.5014809770842918    7    7    3    3
 -0.5018202727480722    7    7    4    4
 -0.503559448278572    7    7    5    5
 -0.505011527496161    7    7    6    6
 -0.5055175106309633    7    7    7    7
 -0.5030579776593467    8    8    1    1
 -0.5106355860137816    8    8    2    2
 -0.5107037719843281    8    8    3    3
 -0.5110493076740724    8    8    4    4
 -0.5128204685837711    8    8    5    5
 -0.5142992531589197    8    8    6    6
 -0.5148145418883275    8    8    7    7
 -0.5242825559274604    8    8    8    8
 -0.5035228737212967    9    9    1    1
 -0.5111074848476573    9    9    2    2
 -0.5111757338315953    9    9    3    3
 -0.5115215888447349    9    9    4    4
 -0.5132943865552965    9    9    5    5
 -0.514774537734606    9    9    6    6
 -0.5152903026630042    9    9    7    7
 -0.5247670664738071    9    9    8    8
 -0.5252520247757904    9    9    9    9
 -0.5041626162134717   10   10    1    1
 -0.5117568638395374   10   10    2    2
 -0.5118251995360705   10   10    3    3
 -0.512171493969462   10   10    4    4
 -0.5139465440782456   10   10    5    5
 -0.5154285758386641   10   10    6    6
 -0.5159449960634906   10   10    7    7
 -0.525433800416669   10   10    8    8
 -0.5259193748742409   10   10    9    9
 -0.5265875728631001   10   10   10   10
 -0.5051360220604354   11   11    1    1
 -0.5127449321878546   11   11    2    2
 -0.5128133998227035   11   11    3    3
 -0.5131603628598655   11   11    4    4
 -0.5149388401250844   11   11    5    5
 -0.5164237333003214   11   11    6    6
 -0.5169411505972239   11   11    7    7
 -0.5264482753441423   11   11    8    8
 -0.5269347873186997   11   11    9    9
 -0.527604275422709   11   11   10   10
 -0.5286229409684345   11   11   11   11
 -0.5061551633400362   12   12    1    1
 -0.5137794248858158   12   12    2    2
 -0.513848030658097   12   12    3    3
 -0.5141956937133498   12   12    4    4
 -0.5159777591598043   12   12    5    5
 -0.5174656481933143   12   12    6    6
 -0.517984109409682   12   12    7    7
 -0.5275104153332673   12   12    8    8
 -0.5279979088740061   12   12    9    9
 -0.5286687477091713   12   12   10   10
 -0.5296894684718334   12   12   11   11
 -0.5307581477564496   12   12   12   12
 -0.5063023494296912   13   13    1    1
 -0.5139288280530089   13   13    2    2
 -0.5139974537753293   13   13    3    3
 -0.5143452179283666   13   13    4    4
 -0.5161278015859617   13   13    5    5
 -0.5176161232863387   13   13    6    6
 -0.5181347352673031   13   13    7    7
 -0.5276638113685321   13   13    8    8
 -0.5281514466687021   13   13    9    9
 -0.5288224805787219   13   13   10   10
 -0.5298434981592544   13   13   11   11
 -0.5309124882077162   13   13   12   12
 -0.5310668735400176   13   13   13   13
 -0.5075223890052378   14   14    1    1
 -0.5151672451963329   14   14    2    2
 -0.5152360362864364   14   14    3    3
 -0.5155846384486794   14   14    4    4
 -0.5173715176079869   14   14    5    5
 -0.5188634257254083   14   14    6    6
 -0.5193832874085356   14   14    7    7
 -0.5289353257772219   14   14    8    8
 -0.5294241361348754   14   14    9    9
 -0.5300967870390249   14   14   10   10
 -0.5311202649712758   14   14   11   11
 -0.532191830970978   14   14   12   12
 -0.5323465883264696   14   14   13   13
 -0.5336293868487303   14   14   14   14
 -0.508550932268629   15   15    1    1
 -0.5162112815010269   15   15    2    2
 -0.5162802120029354   15   15    3    3
 -0.5166295206412143   15   15    4    4
 -0.5184200210841571   15   15    5    5
 -0.5199149526978359   15   15    6    6
 -0.5204358679310008   15   15    7    7
 -0.5300072644303404   15   15    8    8
 -0.5304970654095139   15   15    9    9
 -0.5311710795058515   15   15   10   10
 -0.532196631615233   15   15   11   11
 -0.5332703692471906   15   15   12   12
 -0.5334254402334478   15   15   13   13
 -0.5347108384711239   15   15   14   14
 -0.5357944817599445   15   15   15   15
 -0.5096998814567814   16   16    1    1
 -0.5173775374159456   16   16    2    2
 -0.5174466236498353   16   16    3    3
 -0.5177967214674293   16   16    4    4
 -0.5195912671178424   16   16    5    5
 -0.5210895761719209   16   16    6    6
 -0.5216116682884544   16   16    7    7
 -0.5312046890687451   16   16    8    8
 -0.5316955966360727   16   16    9    9
 -0.5323711335060397   16   16   10   10
 -0.5333990026051044   16   16   11   11
 -0.5344751660904077   16   16   12   12
 -0.5346305874224661   16   16   13   13
 -0.5359188897099981   16   16   14   14
 -0.5370049812316267   16   16   15   15
 -0.5382182155373186   16   16   16   16
 -0.5110542024151185   17   17    1    1
 -0.5187522586348177   17   17    2    2
 -0.5188215284373875   17   17    3    3
 -0.5191725564981089   17   17    4    4
 -0.5209718704266275   17   17    5    5
 -0.5224741606300604   17   17    6    6
 -0.5229976399948968   17   17    7    7
 -0.532616150341831   17   17    8    8
 -0.5331083622971547   17   17    9    9
 -0.5337856941326974   17   17   10   10
 -0.5348162943775087   17   17   11   11
 -0.5358953173313261   17   17   12   12
 -0.5360511516326142   17   17   13   13
 -0.5373428770615911   17   17   14   14
 -0.5384318544314687   17   17   15   15
 -0.5396483124158535   17   17   16   16
 -0.5410822091975186   17   17   17   17
 -0.5122190452804927   18   18    1    1
 -0.5199346476348727   18   18    2    2
 -0.5200040753236999   18   18    3    3
 -0.5203559034806344   18   18    4    4
 -0.5221593185749047   18   18    5    5
 -0.5236650329396436   18   18    6    6
 -0.5241897054679457   18   18    7    7
 -0.5338301392294614   18   18    8    8
 -0.5343234730806264   18   18    9    9
 -0.5350023487546747   18   18   10   10
 -0.5360352980406182   18   18   11   11
 -0.5371167804051662   18   18   12   12
 -0.537272969898669   18   18   13   13
 -0.5385676395498887   18   18   14   14
 -0.5396590990195393   18   18   15   15
 -0.540878329669519   18   18   16   16
 -0.5423154947237625   18   18   17   17
 -0.5435515912705192   18   18   18   18
 -0.5124032441888824   19   19    1    1
 -0.5201216211482763   19   19    2    2
 -0.5201910738039699   19   19    3    3
 -0.5205430284817028   19   19    4    4
 -0.5223470921014325   19   19    5    5
 -0.5238533479355777   19   19    6    6
 -0.5243782091411808   19   19    7    7
 -0.534022109695647   19   19    8    8
 -0.5345156209544225   19   19    9    9
 -0.53519474075871   19   19   10   10
 -0.5362280615031781   19   19   11   11
 -0.5373099327792141   19   19   12   12
 -0.537466178439965   19   19   13   13
 -0.5387613136668767   19   19   14   14
 -0.5398531656358785   19   19   15   15
 -0.5410728347329576   19   19   16   16
 -0.5425105166056143   19   19   17   17
 -0.54374705766461   19   19   18   18
 -0.5439425943503009   19   19   19   19
 -0.512937658605385   20   20    1    1
 -0.5206640854980412   20   20    2    2
 -0.52073361058985   20   20    3    3
 -0.5210859323410857   20   20    4    4
 -0.522891877521125   20   20    5    5
 -0.5243997043149426   20   20    6    6
 -0.5249251129280771   20   20    7    7
 -0.5345790716536146   20   20    8    8
 -0.5350730976232834   20   20    9    9
 -0.5357529257201471   20   20   10   10
 -0.536787324173449   20   20   11   11
 -0.5378703237944228   20   20   12   12
 -0.5380267324126385   20   20   13   13
 -0.5393232184095627   20   20   14   14
 -0.5404162091329333   20   20   15   15
 -0.5416371502921165   20   20   16   16
 -0.5430763316047704   20   20   17   17
 -0.5443141623225962   20   20   18   18
 -0.5445099029445912   20   20   19   19
 -0.545077803217203   20   20   20   20
 -0.5143441451970284   21   21    1    1
 -0.5220917581259281   21   21    2    2
 -0.5221614738571018   21   21    3    3
 -0.5225147616825002   21   21    4    4
 -0.5243256588048238   21   21    5    5
 -0.5258376200936089   21   21    6    6
 -0.5263644693889726   21   21    7    7
 -0.5360448994863738   21   21    8    8
 -0.5365402800863578   21   21    9    9
 -0.5372219722871469   21   21   10   10
 -0.5382592070842629   21   21   11   11
 -0.539345176314545   21   21   12   12
 -0.5395020138087083   21   21   13   13
 -0.5408020547993835   21   21   14   14
 -0.5418980425278899   21   21   15   15
 -0.5431223315351804   21   21   16   16
 -0.5445654591153489   21   21   17   17
 -0.5458066839928317   21   21   18   18
 -0.5460029613400129   21   21   19   19
 -0.5465724188079395   21   21   20   20
 -0.5480711326682275   21   21   21   21
 -0.5176923079693905   22   22    1    1
 -0.5254903545805347   22   22    2    2
 -0.5255605241316224   22   22    3    3
 -0.5259161117112922   22   22    4    4
 -0.5277387970077133   22   22    5    5
 -0.5292606005247954   22   22    6    6
 -0.5297908793861684   22   22    7    7
 -0.5395343249878292   22   22    8    8
 -0.5400329303059295   22   22    9    9
 -0.5407190600345299   22   22   10   10
 -0.5417630467913335   22   22   11   11
 -0.5428560852218441   22   22   12   12
 -0.5430139436617384   22   22   13   13
 -0.5443224473692309   22   22   14   14
 -0.5454255695141506   22   22   15   15
 -0.5466578281248964   22   22   16   16
 -0.5481103498550419   22   22   17   17
 -0.5493596545813296   22   22   18   18
 -0.5495572096109983   22   22   19   19
 -0.5501303740061105   22   22   20   20
 -0.551638843859541   22   22   21   21
 -0.5552297793412538   22   22   22   22
 -0.5186248485569129   23   23    1    1
 -0.5264369421122678   23   23    2    2
 -0.5265072380626729   23   23    3    3
 -0.5268634661769718   23   23    4    4
 -0.528689434751879   23   23    5    5
 -0.5302139795566413   23   23    6    6
 -0.5307452136312815   23   23    7    7
 -0.5405062105048967   23   23    8    8
 -0.5410057139813994   23   23    9    9
 -0.5416930796638866   23   23   10   10
 -0.5427389469972578   23   23   11   11
 -0.5438339543631466   23   23   12   12
 -0.5439920971599841   23   23   13   13
 -0.5453029579293789   23   23   14   14
 -0.5464080671738889   23   23   15   15
 -0.5476425455030877   23   23   16   16
 -0.549097683720762   23   23   17   17
 -0.5503492388713761   23   23   18   18
 -0.5505471497650988   23   23   19   19
 -0.5511213466249657   23   23   20   20
 -0.5526325337475958   23   23   21   21
 -0.5562299377300617   23   23   22   22
 -0.5572318977455832   23   23   23   23
 -0.5194808874778961   24   24    1    1
 -0.5273058756258573   24   24    2    2
 -0.5273762876063172   24   24    3    3
 -0.5277331037085065   24   24    4    4
 -0.5295620862156866   24   24    5    5
 -0.5310891474245381   24   24    6    6
 -0.5316212583508086   24   24    7    7
 -0.5413983666646193   24   24    8    8
 -0.5418986946184263   24   24    9    9
 -0.5425871948623963   24   24   10   10
 -0.5436347884978256   24   24   11   11
 -0.5447316032760022   24   24   12   12
 -0.5448900071023479   24   24   13   13
 -0.5462030315703038   24   24   14   14
 -0.547309964901199   24   24   15   15
 -0.5485464808525823   24   24   16   16
 -0.5500040209122686   24   24   17   17
 -0.5512576418719617   24   24   18   18
 -0.5514558794361638   24   24   19   19
 -0.5520310240617649   24   24   20   20
 -0.5535447055403778   24   24   21   21
 -0.5571480473752857   24   24   22   22
 -0.5581516612197222   24   24   23   23
 -0.5590729428496807   24   24   24   24
 -0.5220385051550802   25   25    1    1
 -0.5299020189321714   25   25    2    2
 -0.5299727775797179   25   25    3    3
 -0.5303313504340659   25   25    4    4
 -0.532169337773001   25   25    5    5
 -0.5337039173311047   25   25    6    6
 -0.5342386480579185   25   25    7    7
 -0.5440638930898606   25   25    8    8
 -0.5445666843635891   25   25    9    9
 -0.5452585743769177   25   25   10   10
 -0.5463113257458942   25   25   11   11
 -0.5474135405935111   25   25   12   12
 -0.5475727243069252   25   25   13   13
 -0.5488922133333869   25   25   14   14
 -0.5500045965515115   25   25   15   15
 -0.5512472003785638   25   25   16   16
 -0.5527119165063438   25   25   17   17
 -0.553971709556684   25   25   18   18
 -0.5541709231257992   25   25   19   19
 -0.5547488994245126   25   25   20   20
 -0.5562700333784728   25   25   21   21
 -0.559891115944553   25   25   22   22
 -0.5608996709919701   25   25   23   23
 -0.5618254884696166   25   25   24   24
 -0.5645915860016719   25   25   25   25
 -0.5413881644307283   26   26    1    1
 -0.5495431438962571   26   26    2    2
 -0.5496165252540203   26   26    3    3
 -0.5499883888187058   26   26    4    4
 -0.5518945022219257   26   26    5    5
 -0.5534859618593483   26   26    6    6
 -0.5540405126899781   26   26    7    7
 -0.5642299361144916   26   26    8    8
 -0.5647513636377255   26   26    9    9
 -0.5654688989547662   26   26   10   10
 -0.5665606711624176   26   26   11   11
 -0.5677037402411673   26   26   12   12
 -0.5678688241910321   26   26   13   13
 -0.5692372208417934   26   26   14   14
 -0.5703908351875878   26   26   15   15
 -0.5716794968445332   26   26   16   16
 -0.5731985035231599   26   26   17   17
 -0.574504991531901   26   26   18   18
 -0.5747115890672323   26   26   19   19
 -0.5753109883919083   26   26   20   20
 -0.5768885040560895   26   26   21   21
 -0.580643804142852   26   26   22   22
 -0.5816897418667106   26   26   23   23
 -0.5826498753048984   26   26   24   24
 -0.5855184998426055   26   26   25   25
 -0.6072210818545921   26   26   26   26
 -0.5486451369792906   27   27    1    1
 -0.5569094288864346   27   27    2    2
 -0.5569837938757837   27   27    3    3
 -0.5573606420409059   27   27    4    4
 -0.5592923057120304   27   27    5    5
 -0.5609050978787907   27   27    6    6
 -0.5614670821193455   27   27    7    7
 -0.5717930884448817   27   27    8    8
 -0.5723215053806495   27   27    9    9
 -0.5730486588135644   27   27   10   10
 -0.5741550655504883   27   27   11   11
 -0.575313456761251   27   27   12   12
 -0.5754807535590706   27   27   13   13
 -0.5768674927181883   27   27   14   14
 -0.5780365705487596   27   27   15   15
 -0.5793425059159247   27   27   16   16
 -0.5808818739369157   27   27   17   17
 -0.5822058746070657   27   27   18   18
 -0.5824152414542161   27   27   19   19
 -0.5830226753550624   27   27   20   20
 -0.5846213366382689   27   27   21   21
 -0.5884269741934721   27   27   22   22
 -0.589486932063777   27   27   23   23
 -0.5904599354951815   27   27   24   24
 -0.5933670121655542   27   27   25   25
 -0.6153605038284001   27   27   26   26
 -0.6236090297052963   27   27   27   27
 -0.5496293541217281   28   28    1    1
 -0.5579084713817585   28   28    2    2
 -0.5579829697748186   28   28    3    3
 -0.5583604939696715   28   28    4    4
 -0.5602956228615196   28   28    5    5
 -0.5619113082238826   28   28    6    6
 -0.5624743006106616   28   28    7    7
 -0.5728188308084671   28   28    8    8
 -0.5733481956739102   28   28    9    9
 -0.5740766535508556   28   28   10   10
 -0.5751850450761311   28   28   11   11
 -0.5763455143304422   28   28   12   12
 -0.5765131112427896   28   28   13   13
 -0.5779023380799354   28   28   14   14
 -0.5790735131248337   28   28   15   15
 -0.5803817912157171   28   28   16   16
 -0.5819239207163833   28   28   17   17
 -0.5832502965176853   28   28   18   18
 -0.5834600389490269   28   28   19   19
 -0.584068562528461   28   28   20   20
 -0.5856700916578104   28   28   21   21
 -0.5894825561644752   28   28   22   22
 -0.590544415498287   28   28   23   23
 -0.5915191644052135   28   28   24   24
 -0.5944314560943671   28   28   25   25
 -0.6164644019873841   28   28   26   26
 -0.6247277249344093   28   28   27   27
 -0.6258484269962588   28   28   28   28
 -0.5506642149341852   29   29    1    1
 -0.558958920397338   29   29    2    2
 -0.5590335590585025   29   29    3    3
 -0.5594117940687294   29   29    4    4
 -0.5613505664869689   29   29    5    5
 -0.5629692939165982   29   29    6    6
 -0.5635333463245614   29   29    7    7
 -0.5738973535551067   29   29    8    8
 -0.5744277151266948   29   29    9    9
 -0.5751575445688681   29   29   10   10
 -0.5762680230113466   29   29   11   11
 -0.5774306772365774   29   29   12   12
 -0.5775985897060827   29   29   13   13
 -0.5789904322266933   29   29   14   14
 -0.5801638123997374   29   29   15   15
 -0.5814745537610373   29   29   16   16
 -0.5830195868354956   29   29   17   17
 -0.5843484599821979   29   29   18   18
 -0.5845585973237116   29   29   19   19
 -0.5851682666520056   29   29   20   20
 -0.586772811194785   29   29   21   21
 -0.590592453939088   29   29   22   22
 -0.5916563125777125   29   29   23   23
 -0.5926328967749818   29   29   24   24
 -0.5955506718258244   29   29   25   25
 -0.6176251020975717   29   29   26   26
 -0.6259039835096507   29   29   27   27
 -0.6270267956673994   29   29   28   28
 -0.6282073830110896   29   29   29   29
 -0.5558128103111426   30   30    1    1
 -0.5641850695376281   30   30    2    2
 -0.5642604060546826   30   30    3    3
 -0.5646421774832427   30   30    4    4
 -0.566599077018587   30   30    5    5
 -0.5682329392115343   30   30    6    6
 -0.5688022653916825   30   30    7    7
 -0.5792631739248125   30   30    8    8
 -0.5797984942663035   30   30    9    9
 -0.5805351474613013   30   30   10   10
 -0.5816560086452401   30   30   11   11
 -0.5828295334446005   30   30   12   12
 -0.5829990158606192   30   30   13   13
 -0.5844038718180443   30   30   14   14
 -0.5855882228505895   30   30   15   15
 -0.5869112193698063   30   30   16   16
 -0.5884706981807565   30   30   17   17
 -0.5898119960137813   30   30   18   18
 -0.5900240980955409   30   30   19   19
 -0.5906394677046958   30   30   20   20
 -0.5922590144037639   30   30   21   21
 -0.5961143700098103   30   30   22   22
 -0.5971881755044679   30   30   23   23
 -0.5981738905599752   30   30   24   24
 -0.6011189461980256   30   30   25   25
 -0.6233997677815085   30   30   26   26
 -0.6317560550053481   30   30   27   27
 -0.6328893652222186   30   30   28   28
 -0.6340809908109499   30   30   29   29
 -0.6400095156167538   30   30   30   30
 -0.5579526312797398   31   31    1    1
 -0.5663571228252995   31   31    2    2
 -0.5664327493800355   31   31    3    3
 -0.5668159905885158   31   31    4    4
 -0.5687804239816294   31   31    5    5
 -0.5704205763724912   31   31    6    6
 -0.5709920943986631   31   31    7    7
 -0.5814932763314243   31   31    8    8
 -0.5820306576000303   31   31    9    9
 -0.5827701468324924   31   31   10   10
 -0.5838953232143176   31   31   11   11
 -0.585073365960955   31   31   12   12
 -0.5852435008664826   31   31   13   13
 -0.5866537653718573   31   31   14   14
 -0.5878426760315406   31   31   15   15
 -0.5891707659484637   31   31   16   16
 -0.5907362485891167   31   31   17   17
 -0.5920827102779848   31   31   18   18
 -0.5922956289304919   31   31   19   19
 -0.5929133676480385   31   31   20   20
 -0.5945391494318726   31   31   21   21
 -0.598409347752254   31   31   22   22
 -0.5994872872853343   31   31   23   23
 -0.6004767972403215   31   31   24   24
 -0.6034331910333968   31   31   25   25
 -0.6257997914408603   31   31   26   26
 -0.6341882494932407   31   31   27   27
 -0.6353259228354674   31   31   28   28
 -0.6365221360576143   31   31   29   29
 -0.642473485061524   31   31   30   30
 -0.6449469405299808   31   31   31   31
 -0.5883571259772795   32   32    1    1
 -0.5972196032089113   32   32    2    2
 -0.5972993508790496   32   32    3    3
 -0.5977034760383134   32   32    4    4
 -0.5997749572368071   32   32    5    5
 -0.6015044863988774   32   32    6    6
 -0.6021071481383722   32   32    7    7
 -0.6131805706386888   32   32    8    8
 -0.6137472354073912   32   32    9    9
 -0.6145270216026899   32   32   10   10
 -0.6157135121847127   32   32   11   11
 -0.6169557499766561   32   32   12   12
 -0.61713515603809   32   32   13   13
 -0.6186222700415618   32   32   14   14
 -0.6198759679713854   32   32   15   15
 -0.6212764294492138   32   32   16   16
 -0.6229272198847913   32   32   17   17
 -0.6243470542669394   32   32   18   18
 -0.6245715754886939   32   32   19   19
 -0.6252229766222039   32   32   20   20
 -0.6269373520802225   32   32   21   21
 -0.6310184489925518   32   32   22   22
 -0.6321551286497581   32   32   23   23
 -0.6331985599387313   32   32   24   24
 -0.6363160564031913   32   32   25   25
 -0.6599014792435394   32   32   26   26
 -0.6687470492693666   32   32   27   27
 -0.6699467178082499   32   32   28   28
 -0.6712081162388374   32   32   29   29
 -0.6774837719116081   32   32   30   30
 -0.68009201330894   32   32   31   31
 -0.7171522454025914   32   32   32   32
 -0.6488829572742543   33   33    1    1
 -0.6586571406416859   33   33    2    2
 -0.6587450921625401   33   33    3    3
 -0.6591907907304234   33   33    4    4
 -0.6614753705998078   33   33    5    5
 -0.6633828209353709   33   33    6    6
 -0.6640474800590449   33   33    7    7
 -0.6762600543985119   33   33    8    8
 -0.6768850134491701   33   33    9    9
 -0.6777450182831503   33   33   10   10
 -0.6790535662443262   33   33   11   11
 -0.6804235962762312   33   33   12   12
 -0.680621458306886   33   33   13   13
 -0.6822615556045502   33   33   14   14
 -0.6836442247085934   33   33   15   15
 -0.6851887553094128   33   33   16   16
 -0.68700936686043   33   33   17   17
 -0.6885752633067381   33   33   18   18
 -0.6888228816118636   33   33   19   19
 -0.6895412940780705   33   33   20   20
 -0.6914320318085428   33   33   21   21
 -0.6959329617989739   33   33   22   22
 -0.6971865746556491   33   33   23   23
 -0.6983373464413681   33   33   24   24
 -0.7017755478939142   33   33   25   25
 -0.7277872646650642   33   33   26   26
 -0.7375428015383558   33   33   27   27
 -0.7388658831071674   33   33   28   28
 -0.7402570448825621   33   33   29   29
 -0.7471782936139656   33   33   30   30
 -0.7500548516030859   33   33   31   31
 -0.7909275663819793   33   33   32   32
 -0.8722923469503227   33   33   33   33
 -0.6493786758892237   34   34    1    1
 -0.659160326311518   34   34    2    2
 -0.6592483450235436   34   34    3    3
 -0.659694384085925   34   34    4    4
 -0.6619807092758728   34   34    5    5
 -0.6638896168212884   34   34    6    6
 -0.6645547837158886   34   34    7    7
 -0.6767766879358355   34   34    8    8
 -0.677402124428275   34   34    9    9
 -0.6782627862688854   34   34   10   10
 -0.6795723339043104   34   34   11   11
 -0.6809434105801165   34   34   12   12
 -0.6811414237688356   34   34   13   13
 -0.6827827740301532   34   34   14   14
 -0.6841664994338043   34   34   15   15
 -0.6857122099894392   34   34   16   16
 -0.6875342124092201   34   34   17   17
 -0.6891013051329289   34   34   18   18
 -0.689349112607768   34   34   19   19
 -0.6900680739101384   34   34   20   20
 -0.6919602560827531   34   34   21   21
 -0.696464624589724   34   34   22   22
 -0.6977191951525957   34   34   23   23
 -0.6988708460783652   34   34   24   24
 -0.7023116741686475   34   34   25   25
 -0.7283432627704045   34   34   26   26
 -0.7381062524534407   34   34   27   27
 -0.7394303447995512   34   34   28   28
 -0.7408225693625886   34   34   29   29
 -0.7477491056297433   34   34   30   30
 -0.7506278611851985   34   34   31   31
 -0.7915318009567245   34   34   32   32
 -0.8729587407109094   34   34   33   33
 -0.8736256435676103   34   34   34   34
 -0.6532570238086362   35   35    1    1
 -0.6630970941405645   35   35    2    2
 -0.6631856385353717   35   35    3    3
 -0.663634341520567   35   35    4    4
 -0.6659343215545569   35   35    5    5
 -0.6678546298556209   35   35    6    6
 -0.6685237693916668   35   35    7    7
 -0.680818667688202   35   35    8    8
 -0.6814478395363118   35   35    9    9
 -0.6823136415919967   35   35   10   10
 -0.6836310103671293   35   35   11   11
 -0.685010275658562   35   35   12   12
 -0.6852094714608578   35   35   13   13
 -0.6868606245192295   35   35   14   14
 -0.6882526140817442   35   35   15   15
 -0.6898075562360443   35   35   16   16
 -0.691640440379473   35   35   17   17
 -0.6932168924046653   35   35   18   18
 -0.693466179884377   35   35   19   19
 -0.6941894351098075   35   35   20   20
 -0.6960929181474873   35   35   21   21
 -0.7006241885360195   35   35   22   22
 -0.7018862518936394   35   35   23   23
 -0.70304478093712   35   35   24   24
 -0.7065061590222826   35   35   25   25
 -0.7326932186323146   35   35   26   26
 -0.7425145167756226   35   35   27   27
 -0.7438465171282419   35   35   28   28
 -0.7452470566105058   35   35   29   29
 -0.7522149609091618   35   35   30   30
 -0.7551109095386022   35   35   31   31
 -0.7962591439191118   35   35   32   32
 -0.8781723977672226   35   35   33   33
 -0.8788432836332255   35   35   34   34
 -0.8840920855220483   35   35   35   35
 -0.7117598526690687   36   36    1    1
 -0.7224811564659617   36   36    2    2
 -0.7225776305077336   36   36    3    3
 -0.7230665173608327   36   36    4    4
 -0.7255724735013274   36   36    5    5
 -0.7276647561766453   36   36    6    6
 -0.7283938209095652   36   36    7    7
 -0.741789796277886   36   36    8    8
 -0.7424753139923428   36   36    9    9
 -0.7434186534760915   36   36   10   10
 -0.7448540000106491   36   36   11   11
 -0.7463567862415542   36   36   12   12
 -0.7465738211447043   36   36   13   13
 -0.748372844216372   36   36   14   14
 -0.7498894942481712   36   36   15   15
 -0.7515836901899169   36   36   16   16
 -0.7535807193841541   36   36   17   17
 -0.7552983515263221   36   36   18   18
 -0.7555699640974313   36   36   19   19
 -0.756357990883111   36   36   20   20
 -0.7584319414983803   36   36   21   21
 -0.76336901255403   36   36   22   22
 -0.764744100760876   36   36   23   23
 -0.7660063825753033   36   36   24   24
 -0.7697777464736409   36   36   25   25
 -0.7983100040852062   36   36   26   26
 -0.8090108545387448   36   36   27   27
 -0.8104621429905827   36   36   28   28
 -0.8119881086353782   36   36   29   29
 -0.8195800278283917   36   36   30   30
 -0.8227353248932595   36   36   31   31
 -0.8675686143533713   36   36   32   32
 -0.9568176593168042   36   36   33   33
 -0.9575486267733194   36   36   34   34
 -0.9632674882978333   36   36   35   35
 -1.0495334922761   36   36   36   36
 -0.7484764408596961   37   37    1    1
 -0.759750809984594   37   37    2    2
 -0.7598522607016441   37   37    3    3
 -0.7603663670964041   37   37    4    4
 -0.7630015945905574   37   37    5    5
 -0.7652018090086955   37   37    6    6
 -0.7659684830131449   37   37    7    7
 -0.7800554983567692   37   37    8    8
 -0.7807763789418976   37   37    9    9
 -0.7817683811975333   37   37   10   10
 -0.7832777710030376   37   37   11   11
 -0.7848580794248501   37   37   12   12
 -0.7850863102125839   37   37   13   13
 -0.7869781370424577   37   37   14   14
 -0.7885730244382189   37   37   15   15
 -0.7903546165634864   37   37   16   16
 -0.7924546637886712   37   37   17   17
 -0.7942609010857808   37   37   18   18
 -0.7945465249654563   37   37   19   19
 -0.7953752026179479   37   37   20   20
 -0.7975561393049704   37   37   21   21
 -0.8027478923353596   37   37   22   22
 -0.8041939153486957   37   37   23   23
 -0.805521312779559   37   37   24   24
 -0.8094872249017856   37   37   25   25
 -0.8394913373095215   37   37   26   26
 -0.8507441979922389   37   37   27   27
 -0.8522703520890441   37   37   28   28
 -0.8538750356496687   37   37   29   29
 -0.8618585888601688   37   37   30   30
 -0.8651766539464633   37   37   31   31
 -0.9123226973785296   37   37   32   32
 -1.006175711529099   37   37   33   33
 -1.00694438641036   37   37   34   34
 -1.012958259072025   37   37   35   35
 -1.103674350156278   37   37   36   36
 -1.160608098890892   37   37   37   37
 -0.2413463179592475    1    1  0  0
 -0.2486719219966906    2    2  0  0
 -0.2487383375340714    3    3  0  0
 -0.2490750378029785    4    4  0  0
 -0.2508044851246825    5    5  0  0
 -0.2522530254052733    6    6  0  0
 -0.2527587553154816    7    7  0  0
 -0.2621412779637302    8    8  0  0
 -0.2626260123878952    9    9  0  0
 -0.26329378643155   10   10  0  0
 -0.2643114704842173   11   11  0  0
 -0.2653790738782248   12   12  0  0
 -0.2655334367700088   13   13  0  0
 -0.2668146934243651   14   14  0  0
 -0.2678972408799722   15   15  0  0
 -0.2691091077686593   16   16  0  0
 -0.2705411045987593   17   17  0  0
 -0.2717757956352596   18   18  0  0
 -0.2719712971751505   19   19  0  0
 -0.2725389016086015   20   20  0  0
 -0.2740355663341137   21   21  0  0
 -0.2776148896706269   22   22  0  0
 -0.2786159488727916   23   23  0  0
 -0.2795364714248403   24   24  0  0
 -0.282295793000836   25   25  0  0
 -0.3036105409272961   26   26  0  0
 -0.3118045148526482   27   27  0  0
 -0.3129242134981294   28   28  0  0
 -0.3141036915055448   29   29  0  0
 -0.3200047578083769   30   30  0  0