 &FCI NORB=  54,NELEC=76,MS2=0,
  ORBSYM=1,1,1,1,1,1,1,1,1,1,1,1,1,1,1,1,1,1,1,1,1,1,1,1,1,1,1,1,1,1,1,1,1,1,1,1,1,1,1,1,1,1,1,1,1,1,1,1,1,1,1,1,1,1,
  ISYM=1,
 &END
 -0.4324169379284821    1    1    1    1
 -0.4351395681221214    2    2    1    1
 -0.4378793408338286    2    2    2    2
 -0.4370163571753701    3    3    1    1
 -0.4397679467288688    3    3    2    2
 -0.4416646983204381    3    3    3    3
 -0.4377767006521672    4    4    1    1
 -0.4405330775623253    4    4    2    2
 -0.4424331292196154    4    4    3    3
 -0.4432028970742911    4    4    4    4
 -0.4397801327073802    5    5    1    1
 -0.442549123842667    5    5    2    2
 -0.4444578708562679    5    5    3    3
 -0.4452311614603107    5    5    4    4
 -0.4472687079526674    5    5    5    5
 -0.4408640758767475    6    6    1    1
 -0.4436398918520029    6    6    2    2
 -0.4455533434284833    6    6    3    3
 -0.446328539991904    6    6    4    4
 -0.4483711085042166    6    6    5    5
 -0.4494762261852105    6    6    6    6
 -0.4410349596377606    7    7    1    1
 -0.4438118515497949    7    7    2    2
 -0.4457260448011356    7    7    3    3
 -0.4465015418392639    7    7    4    4
 -0.4485449020735803    7    7    5    5
 -0.4496504481103329    7    7    6    6
 -0.4498247375657881    7    7    7    7
 -0.4415800669295438    8    8    1    1
 -0.44436039100494    8    8    2    2
 -0.4462769501474111    8    8    3    3
 -0.4470534056789218    8    8    4    4
 -0.4490992914512689    8    8    5    5
 -0.4502062039130471    8    8    6    6
 -0.4503807087855594    8    8    7    7
 -0.450937367170734    8    8    8    8
 -0.4438655663895633    9    9    1    1
 -0.4466602806733246    9    9    2    2
 -0.4485867594095755    9    9    3    3
 -0.4493672336657319    9    9    4    4
 -0.4514237083916531    9    9    5    5
 -0.4525363499341194    9    9    6    6
 -0.4527117579968383    9    9    7    7
 -0.4532712974958448    9    9    8    8
 -0.4556173076155325    9    9    9    9
 -0.4440181215112901   10   10    1    1
 -0.4468137963290734   10   10    2    2
 -0.448740937189671   10   10    3    3
 -0.4495216796922383   10   10    4    4
 -0.4515788612216962   10   10    5    5
 -0.4526918851753672   10   10    6    6
 -0.4528673535252549   10   10    7    7
 -0.4534270853361299   10   10    8    8
 -0.455773901771708   10   10    9    9
 -0.4559305497487751   10   10   10   10
 -0.4447899850735342   11   11    1    1
 -0.4475905197819823   11   11    2    2
 -0.4495210107081235   11   11    3    3
 -0.4503031104226154   11   11    4    4
 -0.4523638680751785   11   11    5    5
 -0.4534788268657224   11   11    6    6
 -0.4536546002428581   11   11    7    7
 -0.4542153050694017   11   11    8    8
 -0.4565662011179644   11   11    9    9
 -0.4567231214056867   11   11   10   10
 -0.4575170708378576   11   11   11   11
 -0.445217323872283   12   12    1    1
 -0.4480205492373968   12   12    2    2
 -0.4499528949122981   12   12    3    3
 -0.4507357460410838   12   12    4    4
 -0.4527984835981622   12   12    5    5
 -0.4539145136024613   12   12    6    6
 -0.4540904558565644   12   12    7    7
 -0.4546516993888682   12   12    8    8
 -0.4570048540968592   12   12    9    9
 -0.4571619251481542   12   12   10   10
 -0.4579566373794167   12   12   11   11
 -0.4583966262412712   12   12   12   12
 -0.4461768622166852   13   13    1    1
 -0.4489861291306823   13   13    2    2
 -0.4509226394228846   13   13    3    3
 -0.4517071777629169   13   13    4    4
 -0.4537743609596285   13   13    5    5
 -0.4548927962467529   13   13    6    6
 -0.4550691176939605   13   13    7    7
 -0.4556315708258485   13   13    8    8
 -0.4579897970844094   13   13    9    9
 -0.4581472066573396   13   13   10   10
 -0.4589436316630559   13   13   11   11
 -0.4593845687948033   13   13   12   12
 -0.4603746405753697   13   13   13   13
 -0.446531985249007   14   14    1    1
 -0.4493434881269672   14   14    2    2
 -0.4512815397348793   14   14    3    3
 -0.4520667025080857   14   14    4    4
 -0.4541355310262547   14   14    5    5
 -0.4552548565032663   14   14    6    6
 -0.4554313182890084   14   14    7    7
 -0.4559942190910439   14   14    8    8
 -0.4583543223193241   14   14    9    9
 -0.4585118571783675   14   14   10   10
 -0.4593089160781446   14   14   11   11
 -0.4597502041624952   14   14   12   12
 -0.4607410639653074   14   14   13   13
 -0.4611077790005462   14   14   14   14
 -0.4477882699191052   15   15    1    1
 -0.450607682752191   15   15    2    2
 -0.4525511869247689   15   15    3    3
 -0.4533385586952881   15   15    4    4
 -0.4554132077092745   15   15    5    5
 -0.4565356823256178   15   15    6    6
 -0.4567126405735252   15   15    7    7
 -0.4572771250552785   15   15    8    8
 -0.4596438682592009   15   15    9    9
 -0.4598018463309032   15   15   10   10
 -0.4606011476968642   15   15   11   11
 -0.4610436773125581   15   15   12   12
 -0.4620373248260418   15   15   13   13
 -0.4624050715868732   15   15   14   14
 -0.4637060140098136   15   15   15   15
 -0.4489531466112874   16   16    1    1
 -0.4517798938667231   16   16    2    2
 -0.4537284538723004   16   16    3    3
 -0.4545178739122477   16   16    4    4
 -0.4565979199195079   16   16    5    5
 -0.4577233145420371   16   16    6    6
 -0.457900733129244   16   16    7    7
 -0.4584666860612897   16   16    8    8
 -0.4608395861124988   16   16    9    9
 -0.4609979751484579   16   16   10   10
 -0.4617993558175043   16   16   11   11
 -0.4622430366300239   16   16   12   12
 -0.4632392690187856   16   16   13   13
 -0.4636079724362762   16   16   14   14
 -0.4649122991316689   16   16   15   15
 -0.4661217222844129   16   16   16   16
 -0.4512167886341399   17   17    1    1
 -0.4540577884767859   17   17    2    2
 -0.4560161732098341   17   17    3    3
 -0.4568095735412431   17   17    4    4
 -0.4589001072343276   17   17    5    5
 -0.4600311761473235   17   17    6    6
 -0.4602094892870526   17   17    7    7
 -0.4607782957793186   17   17    8    8
 -0.4631631600996557   17   17    9    9
 -0.463322347740281   17   17   10   10
 -0.4641277690068205   17   17   11   11
 -0.4645736868780165   17   17   12   12
 -0.4655749423154344   17   17   13   13
 -0.4659455047521925   17   17   14   14
 -0.4672564079216372   17   17   15   15
 -0.4684719290404888   17   17   16   16
 -0.4708339856450748   17   17   17   17
 -0.4513219576532409   18   18    1    1
 -0.4541636196724154   18   18    2    2
 -0.4561224608632164   18   18    3    3
 -0.4569160461193372   18   18    4    4
 -0.4590070670712814   18   18    5    5
 -0.4601383996123407   18   18    6    6
 -0.4603167543130632   18   18    7    7
 -0.4608856933820026   18   18    8    8
 -0.4632711135633971   18   18    9    9
 -0.4634303383072695   18   18   10   10
 -0.4642359473003447   18   18   11   11
 -0.4646819691054952   18   18   12   12
 -0.4656834579142212   18   18   13   13
 -0.4660541067211876   18   18   14   14
 -0.4673653154342288   18   18   15   15
 -0.4685811198651534   18   18   16   16
 -0.4709437270148043   18   18   17   17
 -0.4710534939629088   18   18   18   18
 -0.4514147091761891   19   19    1    1
 -0.4542569551875127   19   19    2    2
 -0.4562161989412748   19   19    3    3
 -0.4570099472877125   19   19    4    4
 -0.4591013979669822   19   19    5    5
 -0.4602329630090629   19   19    6    6
 -0.4604113543635973   19   19    7    7
 -0.4609804103556427   19   19    8    8
 -0.4633663207665751   19   19    9    9
 -0.4635255782328472   19   19   10   10
 -0.4643313527872467   19   19   11   11
 -0.4647774662546816   19   19   12   12
 -0.4657791608801437   19   19   13   13
 -0.4661498858594317   19   19   14   14
 -0.467461364039985   19   19   15   15
 -0.4686774183318141   19   19   16   16
 -0.471040511022679   19   19   17   17
 -0.4711503005290735   19   19   18   18
 -0.4712471269900302   19   19   19   19
 -0.4576867078650525   20   20    1    1
 -0.460568444311433   20   20    2    2
 -0.4625549099833227   20   20    3    3
 -0.463359686744402   20   20    4    4
 -0.4654801962373336   20   20    5    5
 -0.4666274833511945   20   20    6    6
 -0.4668083532920908   20   20    7    7
 -0.4673853158019423   20   20    8    8
 -0.4698043762779144   20   20    9    9
 -0.4699658464824941   20   20   10   10
 -0.4707828165448069   20   20   11   11
 -0.4712351283549763   20   20   12   12
 -0.4722507406203597   20   20   13   13
 -0.4726266164875935   20   20   14   14
 -0.4739563164700989   20   20   15   15
 -0.4751892667353399   20   20   16   16
 -0.4775851924596827   20   20   17   17
 -0.4776965073918689   20   20   18   18
 -0.4777946791688373   20   20   19   19
 -0.4844332036572433   20   20   20   20
 -0.4584978991330772   21   21    1    1
 -0.4613847430894681   21   21    2    2
 -0.4633747295181977   21   21    3    3
 -0.4641809326433599   21   21    4    4
 -0.4663052004686942   21   21    5    5
 -0.4674545210025183   21   21    6    6
 -0.4676357115122976   21   21    7    7
 -0.4682136966145511   21   21    8    8
 -0.4706370445664346   21   21    9    9
 -0.470798800956341   21   21   10   10
 -0.4716172189938067   21   21   11   11
 -0.472070332468924   21   21   12   12
 -0.4730877447774095   21   21   13   13
 -0.4734642868366389   21   21   14   14
 -0.4747963435426332   21   21   15   15
 -0.4760314790548387   21   21   16   16
 -0.4784316512516986   21   21   17   17
 -0.4785431634753933   21   21   18   18
 -0.4786415092493052   21   21   19   19
 -0.4852917996749889   21   21   20   20
 -0.48615191744458   21   21   21   21
 -0.459646172633811   22   22    1    1
 -0.4625402464737458   22   22    2    2
 -0.4645352166738019   22   22    3    3
 -0.4653434388740494   22   22    4    4
 -0.4674730267683674   22   22    5    5
 -0.468625225689018   22   22    6    6
 -0.4688068699768002   22   22    7    7
 -0.4693863025992669   22   22    8    8
 -0.4718157196438147   22   22    9    9
 -0.4719778811404325   22   22   10   10
 -0.4727983488443126   22   22   11   11
 -0.4732525971080458   22   22   12   12
 -0.4742725574491293   22   22   13   13
 -0.4746500425296231   22   22   14   14
 -0.4759854352714418   22   22   15   15
 -0.4772236640876323   22   22   16   16
 -0.4796298473352212   22   22   17   17
 -0.4797416388328923   22   22   18   18
 -0.4798402309063976   22   22   19   19
 -0.4865071764842258   22   22   20   20
 -0.4873694483540739   22   22   21   21
 -0.4885900284781493   22   22   22   22
 -0.459913435863845   23   23    1    1
 -0.4628091924753735   23   23    2    2
 -0.464805322659372   23   23    3    3
 -0.4656140148038695   23   23    4    4
 -0.4677448409561632   23   23    5    5
 -0.4688977098277968   23   23    6    6
 -0.4690794597334257   23   23    7    7
 -0.4696592292694654   23   23    8    8
 -0.4720900589089287   23   23    9    9
 -0.4722523146950413   23   23   10   10
 -0.4730732594633716   23   23   11   11
 -0.4735277718516976   23   23   12   12
 -0.4745483252530774   23   23   13   13
 -0.4749260298238833   23   23   14   14
 -0.4762621990355146   23   23   15   15
 -0.4775011478251382   23   23   16   16
 -0.4799087301582523   23   23   17   17
 -0.4800205866575672   23   23   18   18
 -0.4801192360578546   23   23   19   19
 -0.4867900581596608   23   23   20   20
 -0.4876528314011699   23   23   21   21
 -0.4888741212367712   23   23   22   22
 -0.4891583791823407   23   23   23   23
 -0.4606785997426704   24   24    1    1
 -0.4635791740615939   24   24    2    2
 -0.4655786252329677   24   24    3    3
 -0.4663886628089525   24   24    4    4
 -0.4685230340440307   24   24    5    5
 -0.4696778209583845   24   24    6    6
 -0.4698598732436613   24   24    7    7
 -0.47044060734971   24   24    8    8
 -0.4728754811916051   24   24    9    9
 -0.473038006924749   24   24   10   10
 -0.4738603175094139   24   24   11   11
 -0.4743155860758268   24   24   12   12
 -0.4753378373849827   24   24   13   13
 -0.4757161703477248   24   24   14   14
 -0.4770545625612018   24   24   15   15
 -0.4782955726058086   24   24   16   16
 -0.4807071604645128   24   24   17   17
 -0.4808192030609195   24   24   18   18
 -0.4809180165854787   24   24   19   19
 -0.4875999370195281   24   24   20   20
 -0.4884641456679389   24   24   21   21
 -0.4896874673790952   24   24   22   22
 -0.4899721982482527   24   24   23   23
 -0.490787371275377   24   24   24   24
 -0.4616062445531628   25   25    1    1
 -0.4645126596094591   25   25    2    2
 -0.4665161369728548   25   25    3    3
 -0.4673278056798583   25   25    4    4
 -0.4694664747885537   25   25    5    5
 -0.4706235870379435   25   25    6    6
 -0.470806005912547   25   25    7    7
 -0.4713879094130066   25   25    8    8
 -0.473827686235168   25   25    9    9
 -0.4739905392380244   25   25   10   10
 -0.4748145056672345   25   25   11   11
 -0.4752706909845519   25   25   12   12
 -0.47629500074861   25   25   13   13
 -0.4766740955409872   25   25   14   14
 -0.4780151828060509   25   25   15   15
 -0.479258691808778   25   25   16   16
 -0.4816751357579614   25   25   17   17
 -0.4817874039687837   25   25   18   18
 -0.4818864164690568   25   25   19   19
 -0.4885817919427332   25   25   20   20
 -0.489447740803666   25   25   21   21
 -0.490673525854855   25   25   22   22
 -0.4909588300719241   25   25   23   23
 -0.491775644571061   25   25   24   24
 -0.4927659079018684   25   25   25   25
 -0.4617337342491746   26   26    1    1
 -0.4646409520198544   26   26    2    2
 -0.466644982717879   26   26    3    3
 -0.4674568755973194   26   26    4    4
 -0.4695961353788615   26   26    5    5
 -0.4707535672077429   26   26    6    6
 -0.4709360364640887   26   26    7    7
 -0.4715181006787961   26   26    8    8
 -0.4739585513358742   26   26    9    9
 -0.4741214493166314   26   26   10   10
 -0.4749456433147509   26   26   11   11
 -0.4754019546245739   26   26   12   12
 -0.4764265472897886   26   26   13   13
 -0.4768057467832621   26   26   14   14
 -0.4781472044393457   26   26   15   15
 -0.4793910568832342   26   26   16   16
 -0.4818081682230955   26   26   17   17
 -0.4819204674409509   26   26   18   18
 -0.4820195072872007   26   26   19   19
 -0.4887167319372994   26   26   20   20
 -0.489582919962148   26   26   21   21
 -0.4908090435593713   26   26   22   22
 -0.4910944265737885   26   26   23   23
 -0.4919114666665638   26   26   24   24
 -0.4929020034953416   26   26   25   25
 -0.4930381366766638   26   26   26   26
 -0.4622254471579286   27   27    1    1
 -0.4651357609044931   27   27    2    2
 -0.4671419257497343   27   27    3    3
 -0.4679546832361542   27   27    4    4
 -0.4700962211740704   27   27    5    5
 -0.4712548855838291   27   27    6    6
 -0.471437549156687   27   27    7    7
 -0.4720202332275298   27   27    8    8
 -0.4744632827874004   27   27    9    9
 -0.4746263542426819   27   27   10   10
 -0.4754514259475794   27   27   11   11
 -0.4759082231958228   27   27   12   12
 -0.4769339069778485   27   27   13   13
 -0.4773135102912557   27   27   14   14
 -0.4786563965023639   27   27   15   15
 -0.4799015735588113   27   27   16   16
 -0.4823212589467865   27   27   17   17
 -0.4824336777551568   27   27   18   18
 -0.4825328230716533   27   27   19   19
 -0.4892371797798387   27   27   20   20
 -0.4901042902320554   27   27   21   21
 -0.4913317195619029   27   27   22   22
 -0.4916174064885139   27   27   23   23
 -0.4924353166696773   27   27   24   24
 -0.4934269083482725   27   27   25   25
 -0.4935631865015507   27   27   26   26
 -0.4940887954663867   27   27   27   27
 -0.4626466770775318   28   28    1    1
 -0.4655596430173778   28   28    2    2
 -0.4675676360974375   28   28    3    3
 -0.468381134256559   28   28    4    4
 -0.4705246237959262   28   28    5    5
 -0.4716843441062615   28   28    6    6
 -0.4718671741419626   28   28    7    7
 -0.4724503892176773   28   28    8    8
 -0.4748956651490641   28   28    9    9
 -0.475058885212728   28   28   10   10
 -0.4758847088123774   28   28   11   11
 -0.4763419223437774   28   28   12   12
 -0.4773685408400204   28   28   13   13
 -0.477748490089105   28   28   14   14
 -0.4790926000836596   28   28   15   15
 -0.4803389118803827   28   28   16   16
 -0.4827608023479087   28   28   17   17
 -0.4828733236044804   28   28   18   18
 -0.4829725592729337   28   28   19   19
 -0.489683025717514   28   28   20   20
 -0.4905509263747451   28   28   21   21
 -0.4917794742712165   28   28   22   22
 -0.4920654215467156   28   28   23   23
 -0.4928840770962742   28   28   24   24
 -0.4938765724206676   28   28   25   25
 -0.4940129747653677   28   28   26   26
 -0.4945390627220535   28   28   27   27
 -0.4949897403100399   28   28   28   28
 -0.4631235029468083   29   29    1    1
 -0.4660394711291544   29   29    2    2
 -0.4680495337432524   29   29    3    3
 -0.4688638703326189   29   29    4    4
 -0.4710095690551783   29   29    5    5
 -0.4721704846289241   29   29    6    6
 -0.4723535030980346   29   29    7    7
 -0.4729373192631967   29   29    8    8
 -0.4753851154133149   29   29    9    9
 -0.4755485036994099   29   29   10   10
 -0.4763751784324949   29   29   11   11
 -0.4768328631901035   29   29   12   12
 -0.4778605397686394   29   29   13   13
 -0.4782408806116551   29   29   14   14
 -0.4795863759104781   29   29   15   15
 -0.4808339722159535   29   29   16   16
 -0.4832583588000295   29   29   17   17
 -0.4833709960264084   29   29   18   18
 -0.4834703339719044   29   29   19   19
 -0.490187716545259   29   29   20   20
 -0.4910565117025607   29   29   21   21
 -0.4922863257994561   29   29   22   22
 -0.4925725677859408   29   29   23   23
 -0.4933920670811988   29   29   24   24
 -0.4943855853189064   29   29   25   25
 -0.4945221282464092   29   29   26   26
 -0.4950487584145919   29   29   27   27
 -0.49549990049253   29   29   28   28
 -0.4960105864705883   29   29   29   29
 -0.4642130652232754   30   30    1    1
 -0.4671358936252188   30   30    2    2
 -0.4691506851904145   30   30    3    3
 -0.4699669376195571   30   30    4    4
 -0.4721176843959722   30   30    5    5
 -0.4732813311846257   30   30    6    6
 -0.4734647802300697   30   30    7    7
 -0.4740499699037362   30   30    8    8
 -0.4765035248338098   30   30    9    9
 -0.47666729751351   30   30   10   10
 -0.4774959171135654   30   30   11   11
 -0.4779546786380477   30   30   12   12
 -0.4789847729682746   30   30   13   13
 -0.4793660086158771   30   30   14   14
 -0.4807146693790126   30   30   15   15
 -0.4819652008278396   30   30   16   16
 -0.4843952911176201   30   30   17   17
 -0.4845081933386969   30   30   18   18
 -0.4846077649904879   30   30   19   19
 -0.4913409511380554   30   30   20   20
 -0.4922117902564676   30   30   21   21
 -0.4934444976616026   30   30   22   22
 -0.4937314130720626   30   30   23   23
 -0.4945528403530782   30   30   24   24
 -0.4955486959802422   30   30   25   25
 -0.4956855601439207   30   30   26   26
 -0.4962134292826183   30   30   27   27
 -0.4966656327348686   30   30   28   28
 -0.497177520172523   30   30   29   29
 -0.4983471992478468   30   30   30   30
 -0.4649938623126448   31   31    1    1
 -0.4679216068534906   31   31    2    2
 -0.4699397872577941   31   31    3    3
 -0.4707574126071938   31   31    4    4
 -0.4729117768966624   31   31    5    5
 -0.4740773809159362   31   31    6    6
 -0.4742611385190048   31   31    7    7
 -0.474847312469996   31   31    8    8
 -0.47730499423038   31   31    9    9
 -0.4774690423724512   31   31   10   10
 -0.4782990556940979   31   31   11   11
 -0.478758588846287   31   31   12   12
 -0.4797904157745708   31   31   13   13
 -0.4801722926529062   31   31   14   14
 -0.4815232218364661   31   31   15   15
 -0.4827758566541738   31   31   16   16
 -0.4852100343072089   31   31   17   17
 -0.4853231264275631   31   31   18   18
 -0.4854228655568805   31   31   19   19
 -0.4921673767888545   31   31   20   20
 -0.493039680641243   31   31   21   21
 -0.4942744614355739   31   31   22   22
 -0.4945618594320146   31   31   23   23
 -0.4953846683372848   31   31   24   24
 -0.4963821989736921   31   31   25   25
 -0.496519293340156   31   31   26   26
 -0.4970480503441851   31   31   27   27
 -0.4975010143935961   31   31   28   28
 -0.4980137628156805   31   31   29   29
 -0.4991854092678101   31   31   30   30
 -0.5000250291402591   31   31   31   31
 -0.4655667489018868   32   32    1    1
 -0.4684981005131052   32   32    2    2
 -0.4705187673770849   32   32    3    3
 -0.4713374000657973   32   32    4    4
 -0.4734944185976329   32   32    5    5
 -0.4746614586765306   32   32    6    6
 -0.4748454426745583   32   32    7    7
 -0.4754323388096959   32   32    8    8
 -0.4778930485088018   32   32    9    9
 -0.4780572987631764   32   32   10   10
 -0.4788883346864946   32   32   11   11
 -0.4793484339975119   32   32   12   12
 -0.4803815321679725   32   32   13   13
 -0.4807638795302434   32   32   14   14
 -0.4821164730996692   32   32   15   15
 -0.483370651201593   32   32   16   16
 -0.4858078278355746   32   32   17   17
 -0.4859210592888627   32   32   18   18
 -0.4860209212998227   32   32   19   19
 -0.492773741974886   32   32   20   20
 -0.4936471205321671   32   32   21   21
 -0.4948834226140139   32   32   22   22
 -0.4951711746935324   32   32   23   23
 -0.4959949973244139   32   32   24   24
 -0.4969937569489224   32   32   25   25
 -0.497131020219818   32   32   26   26
 -0.4976604286685674   32   32   27   27
 -0.4981139507834719   32   32   28   28
 -0.4986273309272167   32   32   29   29
 -0.4998004208834312   32   32   30   30
 -0.5006410751931147   32   32   31   31
 -0.5012578802334553   32   32   32   32
 -0.466185987656722   33   33    1    1
 -0.4691212381858205   33   33    2    2
 -0.4711445926885454   33   33    3    3
 -0.471964314220239   33   33    4    4
 -0.4741242017487822   33   33    5    5
 -0.4752927940786665   33   33    6    6
 -0.4754770227892346   33   33    7    7
 -0.4760646995403264   33   33    8    8
 -0.4785286821682093   33   33    9    9
 -0.4786931508877626   33   33   10   10
 -0.4795252921512959   33   33   11   11
 -0.479986003428965   33   33   12   12
 -0.4810204756976105   33   33   13   13
 -0.4814033316105997   33   33   14   14
 -0.4827577242310954   33   33   15   15
 -0.4840135704841233   33   33   16   16
 -0.4864539887461372   33   33   17   17
 -0.4865673708057653   33   33   18   18
 -0.4866673656407027   33   33   19   19
 -0.4934291680746144   33   33   20   20
 -0.4943037082909951   33   33   21   21
 -0.4955416547474961   33   33   22   22
 -0.4958297895588997   33   33   23   23
 -0.4966547079357754   33   33   24   24
 -0.497654795985623   33   33   25   25
 -0.4977922418269816   33   33   26   26
 -0.4983223544287432   33   33   27   27
 -0.4987764797621345   33   33   28   28
 -0.4992905427400414   33   33   29   29
 -0.5004651929940339   33   33   30   30
 -0.5013069654371091   33   33   31   31
 -0.5019245908744948   33   33   32   32
 -0.502592188290778   33   33   33   33
 -0.4662271628051876   34   34    1    1
 -0.4691626725856998   34   34    2    2
 -0.4711862057980474   34   34    3    3
 -0.4720059997303637   34   34    4    4
 -0.4741660780275959   34   34    5    5
 -0.4753347735715706   34   34    6    6
 -0.4755190185538515   34   34    7    7
 -0.4761067472105734   34   34    8    8
 -0.4785709474658695   34   34    9    9
 -0.4787354307118653   34   34   10   10
 -0.4795676454729746   34   34   11   11
 -0.480028397442247   34   34   12   12
 -0.4810629610790382   34   34   13   13
 -0.4814458508071772   34   34   14   14
 -0.4828003630522835   34   34   15   15
 -0.4840563202259681   34   34   16   16
 -0.4864969540341094   34   34   17   17
 -0.4866103461080307   34   34   18   18
 -0.4867103497748556   34   34   19   19
 -0.4934727494343949   34   34   20   20
 -0.4943473668931728   34   34   21   21
 -0.4955854226893591   34   34   22   22
 -0.4958735829498194   34   34   23   23
 -0.4966985741863209   34   34   24   24
 -0.4976987505673819   34   34   25   25
 -0.4978362085484296   34   34   26   26
 -0.4983663679715578   34   34   27   27
 -0.4988205334148592   34   34   28   28
 -0.4993346417965749   34   34   29   29
 -0.5005093957997144   34   34   30   30
 -0.5013512425910245   34   34   31   31
 -0.5019689225792113   34   34   32   32
 -0.5026365789599925   34   34   33   33
 -0.5026809735499435   34   34   34   34
 -0.4663880579366113   35   35    1    1
 -0.4693245807624147   35   35    2    2
 -0.4713488122966709   35   35    3    3
 -0.472168889140115   35   35    4    4
 -0.4743297128810048   35   35    5    5
 -0.4754988117421565   35   35    6    6
 -0.4756831203074352   35   35    7    7
 -0.4762710517894899   35   35    8    8
 -0.478736102441021   35   35    9    9
 -0.4789006424502336   35   35   10   10
 -0.4797331444089025   35   35   11   11
 -0.4801940553838153   35   35   12   12
 -0.4812289760488227   35   35   13   13
 -0.48161199791232   35   35   14   14
 -0.4829669776000017   35   35   15   15
 -0.4842233682048775   35   35   16   16
 -0.4866648442764659   35   35   17   17
 -0.4867782754820253   35   35   18   18
 -0.4868783136601451   35   35   19   19
 -0.4936430470258019   35   35   20   20
 -0.4945179663153229   35   35   21   21
 -0.4957564493649296   35   35   22   22
 -0.4960447090695808   35   35   23   23
 -0.4968699850108014   35   35   24   24
 -0.4978705065530266   35   35   25   25
 -0.4980080119708641   35   35   26   26
 -0.4985383543521656   35   35   27   27
 -0.4989926765280954   35   35   28   28
 -0.4995069623287653   35   35   29   29
 -0.500682121739858   35   35   30   30
 -0.5015242590527441   35   35   31   31
 -0.502142152202477   35   35   32   32
 -0.5028100389916722   35   35   33   33
 -0.5028544489022092   35   35   34   34
 -0.5030279841208702   35   35   35   35
 -0.4668852057517558   36   36    1    1
 -0.4698248587732882   36   36    2    2
 -0.4718512480435058   36   36    3    3
 -0.4726721990504368   36   36    4    4
 -0.4748353261281799   36   36    5    5
 -0.4760056711939343   36   36    6    6
 -0.476190176223507   36   36    7    7
 -0.4767787344129716   36   36    8    8
 -0.4792464126929867   36   36    9    9
 -0.4794111280941388   36   36   10   10
 -0.4802445174608852   36   36   11   11
 -0.4807059197452993   36   36   12   12
 -0.4817419435872399   36   36   13   13
 -0.4821253737340955   36   36   14   14
 -0.483481797766631   36   36   15   15
 -0.4847395276250179   36   36   16   16
 -0.4871836061956927   36   36   17   17
 -0.487297158313602   36   36   18   18
 -0.4873973031277321   36   36   19   19
 -0.4941692473821661   36   36   20   20
 -0.4950450992946514   36   36   21   21
 -0.4962849025091546   36   36   22   22
 -0.4965734694851434   36   36   23   23
 -0.4973996251318454   36   36   24   24
 -0.4984012131831508   36   36   25   25
 -0.4985388651753204   36   36   26   26
 -0.4990697728767489   36   36   27   27
 -0.499524579338829   36   36   28   28
 -0.5000394133440634   36   36   29   29
 -0.5012158254200212   36   36   30   30
 -0.5020588604118208   36   36   31   31
 -0.5026774122066974   36   36   32   32
 -0.5033460109319131   36   36   33   33
 -0.5033904681813338   36   36   34   34
 -0.5035641883804062   36   36   35   35
 -0.5041009642085565   36   36   36   36
 -0.4684029071343513   37   37    1    1
 -0.4713521160711283   37   37    2    2
 -0.4733850925147221   37   37    3    3
 -0.4742087121829491   37   37    4    4
 -0.4763788709269693   37   37    5    5
 -0.4775530204275239   37   37    6    6
 -0.4777381252266653   37   37    7    7
 -0.4783285966392667   37   37    8    8
 -0.4808042965886156   37   37    9    9
 -0.4809695474292912   37   37   10   10
 -0.481805645890647   37   37   11   11
 -0.482268548053139   37   37   12   12
 -0.4833079396925553   37   37   13   13
 -0.4836926162538545   37   37   14   14
 -0.4850534496071485   37   37   15   15
 -0.48631526796164   37   37   16   16
 -0.4887672914861926   37   37   17   17
 -0.4888812127273987   37   37   18   18
 -0.4889816830817706   37   37   19   19
 -0.4957756408612236   37   37   20   20
 -0.4966543399011017   37   37   21   21
 -0.4978981733376587   37   37   22   22
 -0.4981876783568602   37   37   23   23
 -0.4990165195835545   37   37   24   24
 -0.5000213634920846   37   37   25   25
 -0.5001594629488906   37   37   26   26
 -0.5006920964693055   37   37   27   27
 -0.501148381368457   37   37   28   28
 -0.5016648889419946   37   37   29   29
 -0.5028451251747518   37   37   30   30
 -0.5036909006161456   37   37   31   31
 -0.5043114631342208   37   37   32   32
 -0.504982235269939   37   37   33   33
 -0.5050268370363161   37   37   34   34
 -0.505201121946763   37   37   35   35
 -0.5057396426693896   37   37   36   36
 -0.5073836479740271   37   37   37   37
 -0.4783191787387737   38   38    1    1
 -0.4813308235750504   38   38    2    2
 -0.4834068389201392   38   38    3    3
 -0.4842478949368698   38   38    4    4
 -0.4864639967850053   38   38    5    5
 -0.487663003486859   38   38    6    6
 -0.4878520270265453   38   38    7    7
 -0.4884549989484578   38   38    8    8
 -0.4909831104279976   38   38    9    9
 -0.4911518596932006   38   38   10   10
 -0.492005658683961   38   38   11   11
 -0.4924783606651551   38   38   12   12
 -0.4935397566295721   38   38   13   13
 -0.4939325769431914   38   38   14   14
 -0.4953222196675078   38   38   15   15
 -0.4966107512070117   38   38   16   16
 -0.4991146850226396   38   38   17   17
 -0.4992310180208012   38   38   18   18
 -0.4993336153716264   38   38   19   19
 -0.5062714038779683   38   38   20   20
 -0.5071687053180564   38   38   21   21
 -0.5084388711919224   38   38   22   22
 -0.5087345051449063   38   38   23   23
 -0.5095808932625265   38   38   24   24
 -0.5106070101071662   38   38   25   25
 -0.5107480331831498   38   38   26   26