 &FCI NORB=  55,NELEC=78,MS2=0,
  ORBSYM=1,1,1,1,1,1,1,1,1,1,1,1,1,1,1,1,1,1,1,1,1,1,1,1,1,1,1,1,1,1,1,1,1,1,1,1,1,1,1,1,1,1,1,1,1,1,1,1,1,1,1,1,1,1,1,
  ISYM=1,
 &END
 -0.4290383471755053    1    1    1    1
 -0.4300179762896226    2    2    1    1
 -0.4309998422042673    2    2    2    2
 -0.4317006073600915    3    3    1    1
 -0.4326863152492259    3    3    2    2
 -0.4343793873484134    3    3    3    3
 -0.4325846281464523    4    4    1    1
 -0.4335723545323144    4    4    2    2
 -0.435268893642905    4    4    3    3
 -0.4361602214360013    4    4    4    4
 -0.4344650069209579    5    5    1    1
 -0.4354570268013414    5    5    2    2
 -0.4371609405062336    5    5    3    3
 -0.4380561427640108    5    5    4    4
 -0.4399603053701226    5    5    5    5
 -0.4353496306585981    6    6    1    1
 -0.4363436704124361    6    6    2    2
 -0.4380510534934259    6    6    3    3
 -0.438948078492171    6    6    4    4
 -0.4408561182055638    6    6    5    5
 -0.4417537550251835    6    6    6    6
 -0.4356915761672094    7    7    1    1
 -0.4366863966898944    7    7    2    2
 -0.438395120835479    7    7    3    3
 -0.4392928504028003    7    7    4    4
 -0.4412023887866049    7    7    5    5
 -0.4421007306553557    7    7    6    6
 -0.4424479788176492    7    7    7    7
 -0.4363537379820796    8    8    1    1
 -0.4373500704278745    8    8    2    2
 -0.4390613914836204    8    8    3    3
 -0.4399604854157174    8    8    4    4
 -0.4418729259061289    8    8    5    5
 -0.4427726330702279    8    8    6    6
 -0.4431204089784911    8    8    7    7
 -0.4437938610952304    8    8    8    8
 -0.4396009797099245    9    9    1    1
 -0.4406047266270787    9    9    2    2
 -0.4423287829309919    9    9    3    3
 -0.4432345677083354    9    9    4    4
 -0.4451612401303701    9    9    5    5
 -0.4460676427032437    9    9    6    6
 -0.4464180066778919    9    9    7    7
 -0.4470964704666412    9    9    8    8
 -0.4504236570790109    9    9    9    9
 -0.4402147570202399   10   10    1    1
 -0.4412199053835043   10   10    2    2
 -0.442946368840017   10   10    3    3
 -0.4438534182872998   10   10    4    4
 -0.4457827807575184   10   10    5    5
 -0.4466904488629064   10   10    6    6
 -0.4470413020208547   10   10    7    7
 -0.4477207130906582   10   10    8    8
 -0.4510525451695853   10   10    9    9
 -0.4516823113228995   10   10   10   10
 -0.4409521107897602   11   11    1    1
 -0.4419589427629508   11   11    2    2
 -0.443688298022424   11   11    3    3
 -0.4445968667652743   11   11    4    4
 -0.4465294608915595   11   11    5    5
 -0.4474386493287592   11   11    6    6
 -0.4477900901610061   11   11    7    7
 -0.4484706392351707   11   11    8    8
 -0.451808052087808   11   11    9    9
 -0.4524388730909192   11   11   10   10
 -0.4531967020896771   11   11   11   11
 -0.4409949223405911   12   12    1    1
 -0.44200185206598   12   12    2    2
 -0.4437313752266352   12   12    3    3
 -0.444640032181416   12   12    4    4
 -0.4465728139411191   12   12    5    5
 -0.4474820906504146   12   12    6    6
 -0.4478335656036617   12   12    7    7
 -0.4485141807515803   12   12    8    8
 -0.4518519176299257   12   12    9    9
 -0.4524827998787477   12   12   10   10
 -0.4532407024542817   12   12   11   11
 -0.4532847070908329   12   12   12   12
 -0.4411373417989702   13   13    1    1
 -0.4421445967126524   13   13    2    2
 -0.4438746784233936   13   13    3    3
 -0.4447836288292432   13   13    4    4
 -0.4467170347814652   13   13    5    5
 -0.4476266051419795   13   13    6    6
 -0.4479781936041809   13   13    7    7
 -0.4486590285569903   13   13    8    8
 -0.4519978433585823   13   13    9    9
 -0.4526289293510387   13   13   10   10
 -0.4533870766914641   13   13   11   11
 -0.4534310955393274   13   13   12   12
 -0.4535775312640206   13   13   13   13
 -0.4413475332990383   14   14    1    1
 -0.4423552681458415   14   14    2    2
 -0.4440861741995606   14   14    3    3
 -0.4449955576987606   14   14    4    4
 -0.4469298848731482   14   14    5    5
 -0.4478398886224065   14   14    6    6
 -0.4481916446081868   14   14    7    7
 -0.4488728039627333   14   14    8    8
 -0.4522132096305367   14   14    9    9
 -0.4528445963205283   14   14   10   10
 -0.4536031049002134   14   14   11   11
 -0.4536471447220156   14   14   12   12
 -0.453793650219865   14   14   13   13
 -0.4540098721512755   14   14   14   14
 -0.4425443644960553   15   15    1    1
 -0.4435548320838664   15   15    2    2
 -0.4452904319496223   15   15    3    3
 -0.4462022814839981   15   15    4    4
 -0.4481418541008836   15   15    5    5
 -0.4490543255672907   15   15    6    6
 -0.4494070354329633   15   15    7    7
 -0.4500900419322296   15   15    8    8
 -0.4534395059982617   15   15    9    9
 -0.4540726048611577   15   15   10   10
 -0.4548331703385547   15   15   11   11
 -0.4548773295860445   15   15   12   12
 -0.4550242323725092   15   15   13   13
 -0.4552410406471832   15   15   14   14
 -0.4564755477838524   15   15   15   15
 -0.4434378841182136   16   16    1    1
 -0.4444503918915737   16   16    2    2
 -0.4461894960218976   16   16    3    3
 -0.4471031866269474   16   16    4    4
 -0.4490466753397791   16   16    5    5
 -0.4499609891325727   16   16    6    6
 -0.4503144111374367   16   16    7    7
 -0.4509987966616282   16   16    8    8
 -0.4543550234662845   16   16    9    9
 -0.4549894005880449   16   16   10   10
 -0.455751501685896   16   16   11   11
 -0.4557957500931567   16   16   12   12
 -0.4559429494838328   16   16   13   13
 -0.456160195505461   16   16   14   14
 -0.4573971951749445   16   16   15   15
 -0.4583207034190827   16   16   16   16
 -0.4459773025421549   17   17    1    1
 -0.4469956086042634   17   17    2    2
 -0.4487446719943345   17   17    3    3
 -0.4496635949957116   17   17    4    4
 -0.4516182134095022   17   17    5    5
 -0.4525377631674081   17   17    6    6
 -0.4528932091002735   17   17    7    7
 -0.4535815138683353   17   17    8    8
 -0.4569569606460429   17   17    9    9
 -0.4575949706305073   17   17   10   10
 -0.4583614360229712   17   17   11   11
 -0.4584059378258588   17   17   12   12
 -0.4585539801775403   17   17   13   13
 -0.4587724702934817   17   17   14   14
 -0.4600165538406933   17   17   15   15
 -0.4609453507034494   17   17   16   16
 -0.4635850284529815   17   17   17   17
 -0.4465497347324466   18   18    1    1
 -0.4475693478367884   18   18    2    2
 -0.4493206562294227   18   18    3    3
 -0.450240758710346   18   18    4    4
 -0.4521978859659395   18   18    5    5
 -0.453118616007862   18   18    6    6
 -0.4534745181717794   18   18    7    7
 -0.454163706410376   18   18    8    8
 -0.4575434857278366   18   18    9    9
 -0.4581823146271891   18   18   10   10
 -0.4589497638129109   18   18   11   11
 -0.4589943227358903   18   18   12   12
 -0.4591425551066763   18   18   13   13
 -0.4593613256646377   18   18   14   14
 -0.4606070060497732   18   18   15   15
 -0.4615369950656263   18   18   16   16
 -0.4641800609618358   18   18   17   17
 -0.46477585722203   18   18   18   18
 -0.4466433063624882   19   19    1    1
 -0.44766313312021   19   19    2    2
 -0.4494148084882745   19   19    3    3
 -0.4503351037707656   19   19    4    4
 -0.4522926411298107   19   19    5    5
 -0.4532135641048023   19   19    6    6
 -0.4535695408457333   19   19    7    7
 -0.4542588734993007   19   19    8    8
 -0.4576393610278188   19   19    9    9
 -0.4582783237896659   19   19   10   10
 -0.4590459337894375   19   19   11   11
 -0.4590905020494531   19   19   12   12
 -0.4592387654813808   19   19   13   13
 -0.4594575818813081   19   19   14   14
 -0.4607035232907709   19   19   15   15
 -0.4616337071798517   19   19   16   16
 -0.4642773269135512   19   19   17   17
 -0.4648732480190267   19   19   18   18
 -0.4649706592236396   19   19   19   19
 -0.4520678882907603   20   20    1    1
 -0.4531001010704399   20   20    2    2
 -0.4548730509240065   20   20    3    3
 -0.4558045233966333   20   20    4    4
 -0.4577858354806782   20   20    5    5
 -0.4587179432692702   20   20    6    6
 -0.4590782434266013   20   20    7    7
 -0.4597759481779967   20   20    8    8
 -0.4631974924766371   20   20    9    9
 -0.4638442155828157   20   20   10   10
 -0.4646211483761306   20   20   11   11
 -0.4646662579275401   20   20   12   12
 -0.4648163220517025   20   20   13   13
 -0.4650377960252948   20   20   14   14
 -0.4662988696692659   20   20   15   15
 -0.4672403508478008   20   20   16   16
 -0.4699160779289706   20   20   17   17
 -0.4705192366283233   20   20   18   18
 -0.4706178309136018   20   20   19   19
 -0.4763335887551055   20   20   20   20
 -0.4531934490831564   21   21    1    1
 -0.4542282318711562   21   21    2    2
 -0.4560055960237557   21   21    3    3
 -0.4569393876810039   21   21    4    4
 -0.4589256328453606   21   21    5    5
 -0.4598600614003868   21   21    6    6
 -0.4602212586347744   21   21    7    7
 -0.4609207005347999   21   21    8    8
 -0.4643507638108145   21   21    9    9
 -0.4649990971312789   21   21   10   10
 -0.4657779643355819   21   21   11   11
 -0.4658231862009685   21   21   12   12
 -0.4659736239555056   21   21   13   13
 -0.4661956493560576   21   21   14   14
 -0.4674598628272245   21   21   15   15
 -0.4684036881101047   21   21   16   16
 -0.4710860772293704   21   21   17   17
 -0.4716907376761402   21   21   18   18
 -0.4717895774419421   21   21   19   19
 -0.477519566404682   21   21   20   20
 -0.4787084969070878   21   21   21   21
 -0.454468044526197   22   22    1    1
 -0.4555057376153691   22   22    2    2
 -0.4572881005609875   22   22    3    3
 -0.4582245184843335   22   22    4    4
 -0.4602163499144237   22   22    5    5
 -0.461153406526807   22   22    6    6
 -0.4615156196195437   22   22    7    7
 -0.4622170286827315   22   22    8    8
 -0.4656567389274519   22   22    9    9
 -0.466306895669454   22   22   10   10
 -0.4670879534186366   22   22   11   11
 -0.4671333024694088   22   22   12   12
 -0.4672841633264351   22   22   13   13
 -0.4675068131679722   22   22   14   14
 -0.4687745822084718   22   22   15   15
 -0.4697210619767755   22   22   16   16
 -0.4724109952495473   22   22   17   17
 -0.4730173562889705   22   22   18   18
 -0.4731164740391857   22   22   19   19
 -0.4788625784551285   22   22   20   20
 -0.4800548527953669   22   22   21   21
 -0.481404995276509   22   22   22   22
 -0.4560410587795515   23   23    1    1
 -0.4570823435536386   23   23    2    2
 -0.4588708756509761   23   23    3    3
 -0.4598105347235256   23   23    4    4
 -0.4618092603220123   23   23    5    5
 -0.4627495602942429   23   23    6    6
 -0.4631130270864739   23   23    7    7
 -0.4638168638813078   23   23    8    8
 -0.4672684797227088   23   23    9    9
 -0.4679208868007563   23   23   10   10
 -0.4687046479632744   23   23   11   11
 -0.4687501539771248   23   23   12   12
 -0.468901536996889   23   23   13   13
 -0.469124957478691   23   23   14   14
 -0.4703971145477764   23   23   15   15
 -0.4713468702915506   23   23   16   16
 -0.4740461140173446   23   23   17   17
 -0.4746545738062161   23   23   18   18
 -0.4747540346248511   23   23   19   19
 -0.4805200275769768   23   23   20   20
 -0.4817164286419732   23   23   21   21
 -0.483071244264368   23   23   22   22
 -0.484743260507899   23   23   23   23
 -0.4561431780704811   24   24    1    1
 -0.4571846960149391   24   24    2    2
 -0.4589736286104905   24   24    3    3
 -0.4599134980968095   24   24    4    4
 -0.4619126712612269   24   24    5    5
 -0.4628531817907408   24   24    6    6
 -0.4632167299725098   24   24    7    7
 -0.4639207243744561   24   24    8    8
 -0.4673731131211811   24   24    9    9
 -0.4680256662899083   24   24   10   10
 -0.4688096029566549   24   24   11   11
 -0.4688551191604691   24   24   12   12
 -0.4690065360787744   24   24   13   13
 -0.4692300065901533   24   24   14   14
 -0.4705024485278384   24   24   15   15
 -0.4714524169462859   24   24   16   16
 -0.4741522651019881   24   24   17   17
 -0.4747608611406137   24   24   18   18
 -0.4748603442310774   24   24   19   19
 -0.480627628336928   24   24   20   20
 -0.4818242973068116   24   24   21   21
 -0.4831794163071765   24   24   22   22
 -0.4848518069580332   24   24   23   23
 -0.484960377714502   24   24   24   24
 -0.456619242886748   25   25    1    1
 -0.4576618478364988   25   25    2    2
 -0.459452647494649   25   25    3    3
 -0.4603934978983988   25   25    4    4
 -0.4623947575480492   25   25    5    5
 -0.4633362496640341   25   25    6    6
 -0.4637001772716209   25   25    7    7
 -0.464404906414284   25   25    8    8
 -0.4678608983296925   25   25    9    9
 -0.4685141325512542   25   25   10   10
 -0.469298887392388   25   25   11   11
 -0.4693444511002848   25   25   12   12
 -0.4694960260485045   25   25   13   13
 -0.469719729790266   25   25   14   14
 -0.4709934997426325   25   25   15   15
 -0.4719444596185045   25   25   16   16
 -0.4746471255357737   25   25   17   17
 -0.4752563567503162   25   25   18   18
 -0.4753559436687036   25   25   19   19
 -0.4811292469395451   25   25   20   20
 -0.4823271648418268   25   25   21   21
 -0.4836836981447812   25   25   22   22
 -0.4853578342264285   25   25   23   23
 -0.4854665182953826   25   25   24   24
 -0.4859731871220736   25   25   25   25
 -0.4569237868724768   26   26    1    1
 -0.457967087191667   26   26    2    2
 -0.4597590812306366   26   26    3    3
 -0.4607005591382343   26   26    4    4
 -0.4627031535358168   26   26    5    5
 -0.463645273583642   26   26    6    6
 -0.4640094439141668   26   26    7    7
 -0.4647146430786814   26   26    8    8
 -0.4681729399813828   26   26    9    9
 -0.4688266098800574   26   26   10   10
 -0.4696118881164946   26   26   11   11
 -0.4696574822132841   26   26   12   12
 -0.469809158255007   26   26   13   13
 -0.4700330111968519   26   26   14   14
 -0.4713076306950583   26   26   15   15
 -0.4722592248173301   26   26   16   16
 -0.4749636932881783   26   26   17   17
 -0.4755733308318564   26   26   18   18
 -0.4756729841701278   26   26   19   19
 -0.4814501379681125   26   26   20   20
 -0.4826488548264133   26   26   21   21
 -0.4840062928745473   26   26   22   22
 -0.4856815455277865   26   26   23   23
 -0.4857903020840045   26   26   24   24
 -0.4862973088354464   26   26   25   25
 -0.4866216467230606   26   26   26   26
 -0.457466717460484   27   27    1    1
 -0.4585112574604963   27   27    2    2
 -0.4603053808006869   27   27    3    3
 -0.4612479774006545   27   27    4    4
 -0.463252951341139   27   27    5    5
 -0.4641961908443444   27   27    6    6
 -0.4645607938930103   27   27    7    7
 -0.4652668309963848   27   27    8    8
 -0.4687292371514929   27   27    9    9
 -0.4693836837604037   27   27   10   10
 -0.4701698950880629   27   27   11   11
 -0.4702155433611298   27   27   12   12
 -0.4703673996288879   27   27   13   13
 -0.470591518559532   27   27   14   14
 -0.4718676525989671   27   27   15   15
 -0.4728203774339994   27   27   16   16
 -0.4755280594356361   27   27   17   17
 -0.4761384213689817   27   27   18   18
 -0.4762381931183472   27   27   19   19
 -0.4820222115042538   27   27   20   20
 -0.4832223527139836   27   27   21   21
 -0.4845814037108384   27   27   22   22
 -0.4862586469496725   27   27   23   23
 -0.4863675327337021   27   27   24   24
 -0.486875141925817   27   27   25   25
 -0.4871998652014655   27   27   26   26
 -0.4877787707364594   27   27   27   27
 -0.4581988689774565   28   28    1    1
 -0.4592450807090209   28   28    2    2
 -0.4610420754496325   28   28    3    3
 -0.4619861806260806   28   28    4    4
 -0.4639943634223266   28   28    5    5
 -0.4649391125309454   28   28    6    6
 -0.4653042991076911   28   28    7    7
 -0.4660114661864639   28   28    8    8
 -0.4694794137412456   28   28    9    9
 -0.4701349077576709   28   28   10   10
 -0.4709223773753745   28   28   11   11
 -0.4709680987061111   28   28   12   12
 -0.4711201980118708   28   28   13   13
 -0.4713446756331229   28   28   14   14
 -0.4726228520582381   28   28   15   15
 -0.4735771016794604   28   28   16   16
 -0.4762891171842993   28   28   17   17
 -0.4769004559699456   28   28   18   18
 -0.4770003873987693   28   28   19   19
 -0.4827936628031077   28   28   20   20
 -0.4839957247759744   28   28   21   21
 -0.4853569508627562   28   28   22   22
 -0.4870368784415318   28   28   23   23
 -0.4871459384915548   28   28   24   24
 -0.4876543600855905   28   28   25   25
 -0.4879796030638313   28   28   26   26
 -0.488559435106808   28   28   27   27
 -0.4893413488895863   28   28   28   28
 -0.4582926517376361   29   29    1    1
 -0.4593390776046568   29   29    2    2
 -0.4611364401487229   29   29    3    3
 -0.4620807385617661   29   29    4    4
 -0.4640893323867997   29   29    5    5
 -0.4650342748638118   29   29    6    6
 -0.4653995361858425   29   29    7    7
 -0.4661068480054365   29   29    8    8
 -0.4695755053692464   29   29    9    9
 -0.4702311335502065   29   29   10   10
 -0.4710187643448123   29   29   11   11
 -0.4710644950336528   29   29   12   12
 -0.4712166254706389   29   29   13   13
 -0.4714411490372922   29   29   14   14
 -0.4727195870756964   29   29   15   15
 -0.4736740320098483   29   29   16   16
 -0.4763866026018271   29   29   17   17
 -0.476998066514449   29   29   18   18
 -0.4770980183969357   29   29   19   19
 -0.482892479551381   29   29   20   20
 -0.4840947875586606   29   29   21   21
 -0.4854562922570852   29   29   22   22
 -0.4871365636783623   29   29   23   23
 -0.4872456460504668   29   29   24   24
 -0.4877541717066984   29   29   25   25
 -0.4880794812546891   29   29   26   26
 -0.4886594319759368   29   29   27   27
 -0.4894415057984658   29   29   28   28
 -0.4895416832071588   29   29   29   29
 -0.4583134910657944   30   30    1    1
 -0.4593599645155375   30   30    2    2
 -0.4611574087886641   30   30    3    3
 -0.4621017501405247   30   30    4    4
 -0.4641104352996561   30   30    5    5
 -0.4650554207447723   30   30    6    6
 -0.4654206986758421   30   30    7    7
 -0.4661280426580795   30   30    8    8
 -0.4695968577475015   30   30    9    9
 -0.4702525157409642   30   30   10   10
 -0.4710401823504505   30   30   11   11
 -0.4710859151187414   30   30   12   12
 -0.4712380524733512   30   30   13   13
 -0.4714625862494641   30   30   14   14
 -0.4727410824205696   30   30   15   15
 -0.473695570754918   30   30   16   16
 -0.4764082646919875   30   30   17   17
 -0.4770197564088893   30   30   18   18
 -0.4771197128363541   30   30   19   19
 -0.4829144374745735   30   30   20   20
 -0.4841168001527954   30   30   21   21
 -0.4854783667611002   30   30   22   22
 -0.4871587145871101   30   30   23   23
 -0.4872678019193712   30   30   24   24
 -0.4877763506991091   30   30   25   25
 -0.4881016750394653   30   30   26   26
 -0.4886816521320356   30   30   27   27
 -0.4894637615167606   30   30   28   28
 -0.4895639434806868   30   30   29   29
 -0.4895862047664262   30   30   30   30
 -0.4588104464293256   31   31    1    1
 -0.4598580545840332   31   31    2    2
 -0.4616574478496936   31   31    3    3
 -0.4626028131633379   31   31    4    4
 -0.4646136763662819   31   31    5    5
 -0.4655596864715806   31   31    6    6
 -0.4659253604783292   31   31    7    7
 -0.4666334714429764   31   31    8    8
 -0.4701060478143536   31   31    9    9
 -0.4707624167464268   31   31   10   10
 -0.4715509374332071   31   31   11   11
 -0.4715967197901419   31   31   12   12
 -0.4717490221092919   31   31   13   13
 -0.47197379935034   31   31   14   14
 -0.4732536818117071   31   31   15   15
 -0.4742092051103461   31   31   16   16
 -0.4769248404572323   31   31   17   17
 -0.4775369952226682   31   31   18   18
 -0.4776370600342058   31   31   19   19
 -0.4834380679687829   31   31   20   20
 -0.484641734384716   31   31   21   21
 -0.4860047773576534   31   31   22   22
 -0.4876869472069748   31   31   23   23
 -0.4877961528240691   31   31   24   24
 -0.4883052530299566   31   31   25   25
 -0.4886309301237863   31   31   26   26
 -0.4892115360931679   31   31   27   27
 -0.4899944935294148   31   31   28   28
 -0.4900947841219658   31   31   29   29
 -0.4901170695459111   31   31   30   30
 -0.4906485099490784   31   31   31   31
 -0.459546599239557   32   32    1    1
 -0.4605958882620242   32   32    2    2
 -0.4623981686206432   32   32    3    3
 -0.463345050755314   32   32    4    4
 -0.4653591403507897   32   32    5    5
 -0.4663066683116712   32   32    6    6
 -0.4666729290355483   32   32    7    7
 -0.4673821761510409   32   32    8    8
 -0.470860324206486   32   32    9    9
 -0.4715177462702776   32   32   10   10
 -0.4723075321238039   32   32   11   11
 -0.472353387937677   32   32   12   12
 -0.4725059346230597   32   32   13   13
 -0.4727310725150016   32   32   14   14
 -0.4740130085239243   32   32   15   15
 -0.4749700649418876   32   32   16   16
 -0.4776900574750751   32   32   17   17
 -0.4783031944314232   32   32   18   18
 -0.4784034197950859   32   32   19   19
 -0.484213735338778   32   32   20   20
 -0.4854193330150422   32   32   21   21
 -0.4867845629650259   32   32   22   22
 -0.4884694318245191   32   32   23   23
 -0.4885788126599908   32   32   24   24
 -0.4890887297076705   32   32   25   25
 -0.4894149293443272   32   32   26   26
 -0.4899964668851657   32   32   27   27
 -0.4907806805620267   32   32   28   28
 -0.4908811320689643   32   32   29   29
 -0.4909034532494569   32   32   30   30
 -0.4914357463388465   32   32   31   31
 -0.4922242458347298   32   32   32   32
 -0.4602088676134379   33   33    1    1
 -0.4612596688023226   33   33    2    2
 -0.463064546489013   33   33    3    3
 -0.4640127932080212   33   33    4    4
 -0.4660297853771281   33   33    5    5
 -0.4669786788530692   33   33    6    6
 -0.467345467407844   33   33    7    7
 -0.4680557366436931   33   33    8    8
 -0.4715388971776564   33   33    9    9
 -0.4721972666749441   33   33   10   10
 -0.4729881907159661   33   33   11   11
 -0.4730341126142262   33   33   12   12
 -0.4731868791398718   33   33   13   13
 -0.4734123414857557   33   33   14   14
 -0.4746961249366515   33   33   15   15
 -0.4756545606014609   33   33   16   16
 -0.4783784730092268   33   33   17   17
 -0.4789924935782829   33   33   18   18
 -0.4790928633801565   33   33   19   19
 -0.4849115523689644   33   33   20   20
 -0.4861188874734109   33   33   21   21
 -0.4874860849031246   33   33   22   22
 -0.4891733818849489   33   33   23   23
 -0.489282920352896   33   33   24   24
 -0.4897935722595312   33   33   25   25
 -0.4901202419936783   33   33   26   26
 -0.4907026176082228   33   33   27   27
 -0.4914879614423244   33   33   28   28
 -0.4915885577133757   33   33   29   29
 -0.4916109110616875   33   33   30   30
 -0.4921439712569142   33   33   31   31
 -0.4929336070864792   33   33   32   32
 -0.4936439906230706   33   33   33   33
 -0.4602162013179642   34   34    1    1
 -0.4612670192519964   34   34    2    2
 -0.4630719257004962   34   34    3    3
 -0.4640201875303849   34   34    4    4
 -0.4660372118414727   34   34    5    5
 -0.4669861204386008   34   34    6    6
 -0.4673529148383714   34   34    7    7
 -0.4680631953927871   34   34    8    8
 -0.4715464114330041   34   34    9    9
 -0.4722047914218049   34   34   10   10
 -0.4729957280666762   34   34   11   11
 -0.4730416506967294   34   34   12   12
 -0.4731944196568013   34   34   13   13
 -0.4734198855955629   34   34   14   14
 -0.4747036895043185   34   34   15   15
 -0.4756621404423754   34   34   16   16
 -0.4783860962573205   34   34   17   17
 -0.479000126611163   34   34   18   18
 -0.4791004980124896   34   34   19   19
 -0.484919279725599   34   34   20   20
 -0.486126634069655   34   34   21   21
 -0.4874938532864803   34   34   22   22
 -0.4891811771563947   34   34   23   23
 -0.4892907173699031   34   34   24   24
 -0.4898013774140829   34   34   25   25
 -0.4901280523539083   34   34   26   26
 -0.4907104372489577   34   34   27   27
 -0.4914957935979847   34   34   28   28
 -0.491596391472098   34   34   29   29
 -0.4916187451766239   34   34   30   30
 -0.4921518138664847   34   34   31   31
 -0.4929414622793705   34   34   32   32
 -0.4936518571363501   34   34   33   33
 -0.4936597237749871   34   34   34   34
 -0.4607521849743215   35   35    1    1
 -0.461804226727152   35   35    2    2
 -0.463611235231935   35   35    3    3
 -0.464560601440247   35   35    4    4
 -0.4665799748473947   35   35    5    5
 -0.4675299885761935   35   35    6    6
 -0.4678972101573691   35   35    7    7
 -0.4686083179290091   35   35    8    8
 -0.4720955906427282   35   35    9    9
 -0.472754737403565   35   35   10   10
 -0.4735465952005244   35   35   11   11
 -0.4735925713136558   35   35   12   12
 -0.4737455181937262   35   35   13   13
 -0.4739712467178943   35   35   14   14
 -0.4752565457889478   35   35   15   15
 -0.4762161129720146   35   35   16   16
 -0.478943241199824   35   35   17   17
 -0.4795579866745884   35   35   18   18
 -0.4796584749719099   35   35   19   19
 -0.4854840334388345   35   35   20   20
 -0.4866927939093894   35   35   21   21
 -0.4880616054368564   35   35   22   22
 -0.4897508944223288   35   35   23   23
 -0.4898605622101468   35   35   24   24
 -0.4903718169866217   35   35   25   25
 -0.4906988723833458   35   35   26   26
 -0.4912819355439247   35   35   27   27
 -0.4920682065460349   35   35   28   28
 -0.492168921579901   35   35   29   29
 -0.4921913013183218   35   35   30   30
 -0.4927249908383593   35   35   31   31
 -0.4935155589030138   35   35   32   32
 -0.4942267811103382   35   35   33   33
 -0.4942346569107339   35   35   34   34
 -0.4948102596334344   35   35   35   35
 -0.4612194049434291   36   36    1    1
 -0.4622725135059922   36   36    2    2
 -0.4640813543850651   36   36    3    3
 -0.4650316832862628   36   36    4    4
 -0.4670531044136637   36   36    5    5
 -0.4680040814919582   36   36    6    6
 -0.4683716754495683   36   36    7    7
 -0.4690835043111172   36   36    8    8
 -0.4725743132499541   36   36    9    9
 -0.4732341284102891   36   36   10   10
 -0.474026789180707   36   36   11   11
 -0.4740728119153387   36   36   12   12
 -0.4742259138892728   36   36   13   13
 -0.4744518713106171   36   36   14   14
 -0.4757384737230585   36   36   15   15
 -0.4766990139431814   36   36   16   16
 -0.4794289075811352   36   36   17   17
 -0.480044276430831   36   36   18   18
 -0.4801448666270489   36   36   19   19
 -0.4859763324284055   36   36   20   20
 -0.4871863186273412   36   36   21   21
 -0.4885565181809544   36   36   22   22
 -0.490247520168716   36   36   23   23
 -0.4903572991637776   36   36   24   24
 -0.4908690723717405   36   36   25   25
 -0.4911964594148838   36   36   26   26
 -0.4917801138233412   36   36   27   27
 -0.4925671821336907   36   36   28   28
 -0.4926679992963726   36   36   29   29
 -0.4926904017286862   36   36   30   30
 -0.4932246324298817   36   36   31   31
 -0.4940160021601579   36   36   32   32
 -0.4947279455734333   36   36   33   33
 -0.4947358293601854   36   36   34   34
 -0.495312015765601   36   36   35   35
 -0.4958142806972747   36   36   36   36
 -0.4623965792033996   37   37    1    1
 -0.463452375624018   37   37    2    2
 -0.4652658332232472   37   37    3    3
 -0.466218587657085   37   37    4    4
 -0.468245168075041   37   37    5    5
 -0.4691985723403237   37   37    6    6
 -0.4695671045111581   37   37    7    7
 -0.4702807501796417   37   37    8    8
 -0.4737804687402015   37   37    9    9
 -0.4744419679524534   37   37   10   10
 -0.4752366518377832   37   37   11   11
 -0.4752827920366371   37   37   12   12
 -0.475436284774058   37   37   13   13
 -0.4756628189084751   37   37   14   14
 -0.476952705127336   37   37   15   15
 -0.4779156969425363   37   37   16   16
 -0.4806525581115363   37   37   17   17
 -0.4812694975724477   37   37   18   18
 -0.4813703445058898   37   37   19   19
 -0.4872166940076409   37   37   20   20
 -0.4884297684647745   37   37   21   21
 -0.4898034651905105   37   37   22   22
 -0.4914987831372111   37   37   23   23
 -0.4916088423221472   37   37   24   24
 -0.492121921733277   37   37   25   25
 -0.4924501443691907   37   37   26   26
 -0.4930352884438221   37   37   27   27
 -0.4938243655953994   37   37   28   28
 -0.493925440074594   37   37   29   29
 -0.4939478996848286   37   37   30   30
 -0.4944834939076443   37   37   31   31
 -0.4952768834576997   37   37   32   32
 -0.4959906439702811   37   37   33   33
 -0.4959985478788901   37   37   34   34
 -0.4965762048898313   37   37   35   35
 -0.4970797517566163   37   37   36   36
 -0.4983484526886428   37   37   37   37
 -0.4705576377658155   38   38    1    1
 -0.4716320684428409   38   38    2    2
 -0.4734775326232893   38   38    3    3
 -0.4744471026761864   38   38    4    4
 -0.4765094511820051   38   38    5    5
 -0.4774796825355333   38   38    6    6
 -0.4778547191070566   38   38    7    7
 -0.478580960249545   38   38    8    8
 -0.4821424470181956   38   38    9    9
 -0.4828156213466854   38   38   10   10
 -0.4836243309883   38   38   11   11
 -0.4836712855376094   38   38   12   12
 -0.4838274873418256   38   38   13   13
 -0.4840580196856163   38   38   14   14
 -0.4853706717237857   38   38   15   15
 -0.4863506598424893   38   38   16   16
 -0.4891358251843184   38   38   17   17
 -0.4897636533050867   38   38   18   18
 -0.4898662801343296   38   38   19   19
 -0.4958158146569179   38   38   20   20
 -0.4970502992458096   38   38   21   21
 -0.4984482410026077   38   38   22   22
 -0.5001734804272497   38   38   23   23
 -0.500285482099423   38   38   24   24
 -0.5008076170946765   38   38   25   25
 -0.501141632689002   38   38   26   26