 &FCI NORB=  32,NELEC=50,MS2=0,
  ORBSYM=1,1,1,1,1,1,1,1,1,1,1,1,1,1,1,1,1,1,1,1,1,1,1,1,1,1,1,1,1,1,1,1,
  ISYM=1,
 &END
 -0.3963726029811973    1    1    1    1
 -0.4088858575502844    2    2    1    1
 -0.4217941483522825    2    2    2    2
 -0.4149464293063548    3    3    1    1
 -0.4280460488647996    3    3    2    2
 -0.4343906160493678    3    3    3    3
 -0.4165756933447745    4    4    1    1
 -0.4297267478296488    4    4    2    2
 -0.4360962266038176    4    4    3    3
 -0.4378085341430917    4    4    4    4
 -0.4170009810092985    5    5    1    1
 -0.4301654615805653    5    5    2    2
 -0.4365414430403094    5    5    3    3
 -0.4382554986971188    5    5    4    4
 -0.4387029195632023    5    5    5    5
 -0.4201760803503775    6    6    1    1
 -0.4334407969774117    6    6    2    2
 -0.4398653259836929    6    6    3    3
 -0.4415924326817093    6    6    4    4
 -0.4420432602680688    6    6    5    5
 -0.4454090347585952    6    6    6    6
 -0.4210420550204088    7    7    1    1
 -0.4343341099685454    7    7    2    2
 -0.4407718798032471    7    7    3    3
 -0.4425025460343327    7    7    4    4
 -0.4429543027675155    7    7    5    5
 -0.4463270140533289    7    7    6    6
 -0.4472468852854051    7    7    7    7
 -0.4346517769989287    8    8    1    1
 -0.4483734830239834    8    8    2    2
 -0.4550193466976907    8    8    3    3
 -0.4568059548138252    8    8    4    4
 -0.4572723140872229    8    8    5    5
 -0.4607540445609449    8    8    6    6
 -0.4617036496202607    8    8    7    7
 -0.4766277129837059    8    8    8    8
 -0.4368274469831802    9    9    1    1
 -0.4506178376553737    9    9    2    2
 -0.457296967513368    9    9    3    3
 -0.4590925185807513    9    9    4    4
 -0.459561212237503    9    9    5    5
 -0.4630603706774402    9    9    6    6
 -0.4640147290296994    9    9    7    7
 -0.4790134954966889    9    9    8    8
 -0.4814112201566438    9    9    9    9
 -0.437365762259759   10   10    1    1
 -0.4511731472348977   10   10    2    2
 -0.457860507980538   10   10    3    3
 -0.4596582717581714   10   10    4    4
 -0.4601275429998646   10   10    5    5
 -0.4636310135553898   10   10    6    6
 -0.4645865479914412   10   10    7    7
 -0.4796037978783138   10   10    8    8
 -0.4820044773247006   10   10    9    9
 -0.482598465580968   10   10   10   10
 -0.4378364836592011   11   11    1    1
 -0.4516587290375514   11   11    2    2
 -0.4583532871545463   11   11    3    3
 -0.4601529858021541   11   11    4    4
 -0.4606227621039931   11   11    5    5
 -0.4641300033217537   11   11    6    6
 -0.465086566165938   11   11    7    7
 -0.480119978591108   11   11    8    8
 -0.4825232418044152   11   11    9    9
 -0.4831178693493681   11   11   10   10
 -0.4836378321337905   11   11   11   11
 -0.4421721905704423   12   12    1    1
 -0.456131311716465   12   12    2    2
 -0.4628921631712213   12   12    3    3
 -0.4647096834626524   12   12    4    4
 -0.4651841117577232   12   12    5    5
 -0.4687260836810206   12   12    6    6
 -0.4696921189567846   12   12    7    7
 -0.4848744008174266   12   12    8    8
 -0.4873014625155844   12   12    9    9
 -0.4879019784020815   12   12   10   10
 -0.4884270901549479   12   12   11   11
 -0.4932637741441939   12   12   12   12
 -0.4433843572505517   13   13    1    1
 -0.4573817457998568   13   13    2    2
 -0.4641611313891368   13   13    3    3
 -0.4659836342135825   13   13    4    4
 -0.4664593631019146   13   13    5    5
 -0.4700110449536943   13   13    6    6
 -0.4709797285094679   13   13    7    7
 -0.4862036309346591   13   13    8    8
 -0.4886373461569051   13   13    9    9
 -0.4892395082919994   13   13   10   10
 -0.4897660595812812   13   13   11   11
 -0.4946160028104772   13   13   12   12
 -0.4959719384636948   13   13   13   13
 -0.4464228652762139   14   14    1    1
 -0.4605161777722029   14   14    2    2
 -0.4673420224148646   14   14    3    3
 -0.4691770148307186   14   14    4    4
 -0.4696560038837849   14   14    5    5
 -0.4732320253714465   14   14    6    6
 -0.4742073473047597   14   14    7    7
 -0.4895355789624652   14   14    8    8
 -0.4919859724078242   14   14    9    9
 -0.4925922611532743   14   14   10   10
 -0.4931224208926338   14   14   11   11
 -0.4980056007283652   14   14   12   12
 -0.4993708285934013   14   14   13   13
 -0.5027930112790328   14   14   14   14
 -0.4505616814368333   15   15    1    1
 -0.4647856539730041   15   15    2    2
 -0.4716747814766353   15   15    3    3
 -0.4735267862295717   15   15    4    4
 -0.4740102160220979   15   15    5    5
 -0.4776193910434941   15   15    6    6
 -0.4786037552515055   15   15    7    7
 -0.4940740959673109   15   15    8    8
 -0.4965472071737443   15   15    9    9
 -0.4971591168625932   15   15   10   10
 -0.4976941917482583   15   15   11   11
 -0.5026226438699576   15   15   12   12
 -0.5040005288535918   15   15   13   13
 -0.5074544388231631   15   15   14   14
 -0.5121590827729747   15   15   15   15
 -0.4540398970673289   16   16    1    1
 -0.4683736748657787   16   16    2    2
 -0.4753159845905149   16   16    3    3
 -0.4771822863246302   16   16    4    4
 -0.4776694480658104   16   16    5    5
 -0.4813064849527177   16   16    6    6
 -0.4822984481890429   16   16    7    7
 -0.4978882157960017   16   16    8    8
 -0.5003804187592545   16   16    9    9
 -0.5009970522271817   16   16   10   10
 -0.501536257747802   16   16   11   11
 -0.506502756201247   16   16   12   12
 -0.5078912780882943   16   16   13   13
 -0.5113718513187185   16   16   14   14
 -0.51611281386107   16   16   15   15
 -0.5200970666953234   16   16   16   16
 -0.4630331750150602   17   17    1    1
 -0.4776508654137355   17   17    2    2
 -0.4847306831446118   17   17    3    3
 -0.4866339511681163   17   17    4    4
 -0.4871307622396135   17   17    5    5
 -0.4908398387949319   17   17    6    6
 -0.4918514500867603   17   17    7    7
 -0.5077500079875576   17   17    8    8
 -0.5102915746170774   17   17    9    9
 -0.5109204218930967   17   17   10   10
 -0.5114703075877484   17   17   11   11
 -0.5165351786760813   17   17   12   12
 -0.5179512033516445   17   17   13   13
 -0.5215007171370305   17   17   14   14
 -0.5263355850699843   17   17   15   15
 -0.5303987549628132   17   17   16   16
 -0.5409044912589428   17   17   17   17
 -0.4641647139273322   18   18    1    1
 -0.4788181263571408   18   18    2    2
 -0.4859152454169208   18   18    3    3
 -0.4878231645581967   18   18    4    4
 -0.4883211897134568   18   18    5    5
 -0.4920393303373504   18   18    6    6
 -0.4930534137577487   18   18    7    7
 -0.5089908238140384   18   18    8    8
 -0.511538601405741   18   18    9    9
 -0.5121689854294517   18   18   10   10
 -0.5127202149091589   18   18   11   11
 -0.5177974632936152   18   18   12   12
 -0.5192169483843441   18   18   13   13
 -0.5227751363062382   18   18   14   14
 -0.5276218194643142   18   18   15   15
 -0.5316949187425283   18   18   16   16
 -0.5422263284678258   18   18   17   17
 -0.5435513959209295   18   18   18   18
 -0.4648887092123609   19   19    1    1
 -0.4795649777559378   19   19    2    2
 -0.4866731667669278   19   19    3    3
 -0.4885840618441614   19   19    4    4
 -0.4890828638095784   19   19    5    5
 -0.4928068039184393   19   19    6    6
 -0.4938224690868529   19   19    7    7
 -0.5097847380119667   19   19    8    8
 -0.512336489578658   19   19    9    9
 -0.5129678568633688   19   19   10   10
 -0.5135199461403253   19   19   11   11
 -0.5186051139201621   19   19   12   12
 -0.5200268130967145   19   19   13   13
 -0.5235905510123962   19   19   14   14
 -0.5284447939346015   19   19   15   15
 -0.5325242463555351   19   19   16   16
 -0.5430720827732481   19   19   17   17
 -0.5443992170413414   19   19   18   18
 -0.5452483605769979   19   19   19   19
 -0.4854158286783496   20   20    1    1
 -0.5007401265496754   20   20    2    2
 -0.5081621770120709   20   20    3    3
 -0.5101574474909008   20   20    4    4
 -0.5106782740125848   20   20    5    5
 -0.5145666443646071   20   20    6    6
 -0.5156271561378883   20   20    7    7
 -0.5322942376228279   20   20    8    8
 -0.5349586615522136   20   20    9    9
 -0.5356179068030341   20   20   10   10
 -0.5361943735327431   20   20   11   11
 -0.5415040764420697   20   20   12   12
 -0.5429885506188823   20   20   13   13
 -0.5467096450641828   20   20   14   14
 -0.5517782266493984   20   20   15   15
 -0.5560378069279048   20   20   16   16
 -0.5670513821212938   20   20   17   17
 -0.5684371158845538   20   20   18   18
 -0.5693237532772448   20   20   19   19
 -0.5944621927935477   20   20   20   20
 -0.4865902257485732   21   21    1    1
 -0.5019515986583712   21   21    2    2
 -0.5093916057546529   21   21    3    3
 -0.5113917035169502   21   21    4    4
 -0.5119137901070232   21   21    5    5
 -0.5158115678382028   21   21    6    6
 -0.5168746453743741   21   21    7    7
 -0.5335820505787078   21   21    8    8
 -0.5362529207166258   21   21    9    9
 -0.5369137609209796   21   21   10   10
 -0.5374916223329352   21   21   11   11
 -0.5428141713407448   21   21   12   12
 -0.544302236999378   21   21   13   13
 -0.5480323341227051   21   21   14   14
 -0.5531131784464061   21   21   15   15
 -0.5573830641956121   21   21   16   16
 -0.5684232852247477   21   21   17   17
 -0.5698123715809301   21   21   18   18
 -0.5707011540712773   21   21   19   19
 -0.5959004125967138   21   21   20   20
 -0.5973421119755825   21   21   21   21
 -0.4910382844741215   22   22    1    1
 -0.5065400800335993   22   22    2    2
 -0.5140480983367066   22   22    3    3
 -0.5160664795577188   22   22    4    4
 -0.516593338688812   22   22    5    5
 -0.5205267471074366   22   22    6    6
 -0.5215995425357078   22   22    7    7
 -0.5384596748512079   22   22    8    8
 -0.5411549601676336   22   22    9    9
 -0.5418218412989968   22   22   10   10
 -0.542404985105377   22   22   11   11
 -0.5477761890373993   22   22   12   12
 -0.5492778575246279   22   22   13   13
 -0.5530420525195902   22   22   14   14
 -0.5581693422766997   22   22   15   15
 -0.5624782602578717   22   22   16   16
 -0.5736194030665295   22   22   17   17
 -0.57502118745354   22   22   18   18
 -0.5759180945557312   22   22   19   19
 -0.6013477066226696   22   22   20   20
 -0.6028025849828709   22   22   21   21
 -0.6083129737166175   22   22   22   22
 -0.4954471863353823   23   23    1    1
 -0.5110881683849078   23   23    2    2
 -0.5186635991829622   23   23    3    3
 -0.5207001029109223   23   23    4    4
 -0.5212316925697099   23   23    5    5
 -0.5252004180140051   23   23    6    6
 -0.5262828457864539   23   23    7    7
 -0.5432943607356452   23   23    8    8
 -0.5460138463004507   23   23    9    9
 -0.5466867151797232   23   23   10   10
 -0.5472750948788936   23   23   11   11
 -0.552694525419231   23   23   12   12
 -0.5542096769875098   23   23   13   13
 -0.5580076696859185   23   23   14   14
 -0.5631809960109863   23   23   15   15
 -0.5675286026180921   23   23   16   16
 -0.5787697787781581   23   23   17   17
 -0.5801841494135088   23   23   18   18
 -0.581089109605484   23   23   19   19
 -0.6067470473804537   23   23   20   20
 -0.6082149887056274   23   23   21   21
 -0.6137748537509218   23   23   22   22
 -0.6192857745500924   23   23   23   23
 -0.5081090488903323   24   24    1    1
 -0.5241497586412106   24   24    2    2
 -0.5319187904248091   24   24    3    3
 -0.5340073399227467   24   24    4    4
 -0.5345525151167455   24   24    5    5
 -0.5386226670248089   24   24    6    6
 -0.5397327577895169   24   24    7    7
 -0.5571790263715453   24   24    8    8
 -0.5599680122855129   24   24    9    9
 -0.5606580772928528   24   24   10   10
 -0.5612614938780657   24   24   11   11
 -0.5668194257289775   24   24   12   12
 -0.5683732991659772   24   24   13   13
 -0.5722683550082655   24   24   14   14
 -0.5775738930981521   24   24   15   15
 -0.582032609019874   24   24   16   16
 -0.5935610695392427   24   24   17   17
 -0.5950115864422089   24   24   18   18
 -0.595939674188209   24   24   19   19
 -0.622253337316981   24   24   20   20
 -0.6237587939854864   24   24   21   21
 -0.629460749346296   24   24   22   22
 -0.6351125096206617   24   24   23   23
 -0.6513437195771201   24   24   24   24
 -0.551466129253419   25   25    1    1
 -0.5688755970361974   25   25    2    2
 -0.5773075623694354   25   25    3    3
 -0.5795743283518505   25   25    4    4
 -0.5801660234902387   25   25    5    5
 -0.5845834825437924   25   25    6    6
 -0.5857882976488775   25   25    7    7
 -0.6047232609719243   25   25    8    8
 -0.607750231796154   25   25    9    9
 -0.6084991802342148   25   25   10   10
 -0.6091540865172289   25   25   11   11
 -0.6151862781720919   25   25   12   12
 -0.6168727440429977   25   25   13   13
 -0.6211001660368859   25   25   14   14
 -0.6268584271039268   25   25   15   15
 -0.6316976064418316   25   25   16   16
 -0.6442097935653468   25   25   17   17
 -0.6457840834616638   25   25   18   18
 -0.646791365182019   25   25   19   19
 -0.6753503801883317   25   25   20   20
 -0.6769842978750026   25   25   21   21
 -0.6831728026041914   25   25   22   22
 -0.6893068290868518   25   25   23   23
 -0.7069230525084498   25   25   24   24
 -0.7672449847099422   25   25   25   25
 -0.5518502114011781   26   26    1    1
 -0.5692718044359396   26   26    2    2
 -0.5777096424187987   26   26    3    3
 -0.5799779871461281   26   26    4    4
 -0.5805700943851468   26   26    5    5
 -0.5849906300866957   26   26    6    6
 -0.5861962843148903   26   26    7    7
 -0.6051444353588054   26   26    8    8
 -0.6081735143913068   26   26    9    9
 -0.608922984452926   26   26   10   10
 -0.609578346861527   26   26   11   11
 -0.6156147397846159   26   26   12   12
 -0.6173023802361522   26   26   13   13
 -0.6215327465220518   26   26   14   14
 -0.6272950180716239   26   26   15   15
 -0.6321375677749871   26   26   16   16
 -0.6446584693189329   26   26   17   17
 -0.6462338556681644   26   26   18   18
 -0.6472418389346453   26   26   19   19
 -0.6758207445693025   26   26   20   20
 -0.6774558002381288   26   26   21   21
 -0.6836486151036283   26   26   22   22
 -0.6897869137798847   26   26   23   23
 -0.7074154064535152   26   26   24   24
 -0.7677793513481683   26   26   25   25
 -0.7683140901591813   26   26   26   26
 -0.5545812854756891   27   27    1    1
 -0.572089096944531   27   27    2    2
 -0.5805686932887784   27   27    3    3
 -0.5828482639200739   27   27    4    4
 -0.5834433014628171   27   27    5    5
 -0.5878857141342402   27   27    6    6
 -0.5890973350739399   27   27    7    7
 -0.6081392593972826   27   27    8    8
 -0.6111833291628569   27   27    9    9
 -0.6119365083075075   27   27   10   10
 -0.6125951140659279   27   27   11   11
 -0.6186613807407617   27   27   12   12
 -0.6203573732251307   27   27   13   13
 -0.624608675343708   27   27   14   14
 -0.6303994640345518   27   27   15   15
 -0.6352659792301376   27   27   16   16
 -0.647848845975672   27   27   17   17
 -0.6494320288188195   27   27   18   18
 -0.650445000534901   27   27   19   19
 -0.6791653414841494   27   27   20   20
 -0.6808084889468271   27   27   21   21
 -0.6870319516870179   27   27   22   22
 -0.6932006284405677   27   27   23   23
 -0.7109163634823606   27   27   24   24
 -0.7715790459719827   27   27   25   25
 -0.7721164311737611   27   27   26   26
 -0.7759375897492531   27   27   27   27
 -0.6218571264715491   28   28    1    1
 -0.6414887974564094   28   28    2    2
 -0.6509970472916872   28   28    3    3
 -0.6535531509314817   28   28    4    4
 -0.6542203720335344   28   28    5    5
 -0.6592016904638571   28   28    6    6
 -0.6605602922336377   28   28    7    7
 -0.6819121781560876   28   28    8    8
 -0.6853255217484074   28   28    9    9
 -0.6861700684918283   28   28   10   10
 -0.6869085692222625   28   28   11   11
 -0.6937107301707456   28   28   12   12
 -0.6956124622350407   28   28   13   13
 -0.7003794866342741   28   28   14   14
 -0.7068727515705464   28   28   15   15
 -0.7123296200850714   28   28   16   16
 -0.7264389049853739   28   28   17   17
 -0.7282141425552358   28   28   18   18
 -0.7293499971126413   28   28   19   19
 -0.761554381143854   28   28   20   20
 -0.7633968575963965   28   28   21   21
 -0.7703752839473657   28   28   22   22
 -0.7772922782646261   28   28   23   23
 -0.797157095875576   28   28   24   24
 -0.8651787230112541   28   28   25   25
 -0.8657812980099751   28   28   26   26
 -0.8700659984745956   28   28   27   27
 -0.9756130540682105   28   28   28   28
 -0.6225760218720606   29   29    1    1
 -0.6422303879702752   29   29    2    2
 -0.6517496297790828   29   29    3    3
 -0.6543086883920884   29   29    4    4
 -0.6549766808323813   29   29    5    5
 -0.6599637578956044   29   29    6    6
 -0.6613239302714323   29   29    7    7
 -0.6827004999547149   29   29    8    8
 -0.6861177895290047   29   29    9    9
 -0.6869633126072514   29   29   10   10
 -0.68770266707845   29   29   11   11
 -0.6945126916374172   29   29   12   12
 -0.6964166221913264   29   29   13   13
 -0.701189157489718   29   29   14   14
 -0.7076899289384966   29   29   15   15
 -0.713153105843662   29   29   16   16
 -0.7272787017253579   29   29   17   17
 -0.7290559915513884   29   29   18   18
 -0.7301931592088329   29   29   19   19
 -0.7624347729871545   29   29   20   20
 -0.7642793794271023   29   29   21   21
 -0.7712658731594569   29   29   22   22
 -0.7781908638398501   29   29   23   23
 -0.7980786460923627   29   29   24   24
 -0.8661789093532879   29   29   25   25
 -0.8667821809563843   29   29   26   26
 -0.871071834731541   29   29   27   27
 -0.9767409075692685   29   29   28   28
 -0.9778700649207767   29   29   29   29
 -0.6287077643072096   30   30    1    1
 -0.6485557059791798   30   30    2    2
 -0.6581687026659443   30   30    3    3
 -0.6607529654110401   30   30    4    4
 -0.6614275368994308   30   30    5    5
 -0.666463731614124   30   30    6    6
 -0.6678373003084463   30   30    7    7
 -0.6894244075242391   30   30    8    8
 -0.6928753539352198   30   30    9    9
 -0.6937292045583071   30   30   10   10
 -0.6944758409212367   30   30   11   11
 -0.7013529373157802   30   30   12   12
 -0.7032756196547899   30   30   13   13
 -0.7080951595858437   30   30   14   14
 -0.7146599570406895   30   30   15   15
 -0.7201769406979354   30   30   16   16
 -0.7344416593737105   30   30   17   17
 -0.7362364537021038   30   30   18   18
 -0.737384821307725   30   30   19   19
 -0.7699439822841987   30   30   20   20
 -0.7718067562268879   30   30   21   21
 -0.7788620598372117   30   30   22   22
 -0.7858552546528852   30   30   23   23
 -0.8059389113915559   30   30   24   24
 -0.8747098931822863   30   30   25   25
 -0.8753191063988702   30   30   26   26
 -0.8796510089133955   30   30   27   27
 -0.9863608149551639   30   30   28   28
 -0.9875010933614589   30   30   29   29
 -0.9972269776650544   30   30   30   30
 -0.6310874990154788   31   31    1    1
 -0.6510105675402826   31   31    2    2
 -0.6606599505788066   31   31    3    3
 -0.6632539950700473   31   31    4    4
 -0.6639311198928729   31   31    5    5
 -0.668986377211912   31   31    6    6
 -0.6703651450293907   31   31    7    7
 -0.692033962049339   31   31    8    8
 -0.6954979707086596   31   31    9    9
 -0.6963550532593272   31   31   10   10
 -0.6971045157309327   31   31   11   11
 -0.7040076427646877   31   31   12   12
 -0.7059376026882206   31   31   13   13
 -0.7107753851591364   31   31   14   14
 -0.7173650311640446   31   31   15   15
 -0.7229028972697658   31   31   16   16
 -0.7372216096260131   31   31   17   17
 -0.7390231974673864   31   31   18   18
 -0.7401759117828847   31   31   19   19
 -0.7728583131101966   31   31   20   20
 -0.774728137876904   31   31   21   21
 -0.7818101466622422   31   31   22   22
 -0.7888298115636525   31   31   23   23
 -0.8089894873651111   31   31   24   24
 -0.8780207756155038   31   31   25   25
 -0.8786322947775821   31   31   26   26
 -0.88298059406554   31   31   27   27
 -0.9900943095920751   31   31   28   28
 -0.9912389040896523   31   31   29   29
 -1.001001602038251   31   31   30   30
 -1.004790513819909   31   31   31   31
 -0.6331581619373418   32   32    1    1
 -0.6531466000968609   32   32    2    2
 -0.6628276437525067   32   32    3    3
 -0.665430199570234   32   32    4    4
 -0.6661095461091707   32   32    5    5
 -0.671181390246848   32   32    6    6
 -0.6725646819431897   32   32    7    7
 -0.6943045965780231   32   32    8    8
 -0.6977799710056454   32   32    9    9
 -0.6986398657322181   32   32   10   10
 -0.6993917872671922   32   32   11   11
 -0.7063175641699686   32   32   12   12
 -0.7082538564902937   32   32   13   13
 -0.7131075122225277   32   32   14   14
 -0.7197187795329947   32   32   15   15
 -0.7252748159463661   32   32   16   16
 -0.7396405094689512   32   32   17   17
 -0.7414480085051263   32   32   18   18
 -0.7426045049947229   32   32   19   19
 -0.7753941406385623   32   32   20   20
 -0.7772701004924338   32   32   21   21
 -0.7843753460761987   32   32   22   22
 -0.7914180432193472   32   32   23   23
 -0.8116438649883048   32   32   24   24
 -0.8809016519876848   32   32   25   25
 -0.8815151776069607   32   32   26   26
 -0.8858777441116243   32   32   27   27
 -0.9933429107436083   32   32   28   28
 -0.9944912607733269   32   32   29   29
 -1.00428599113691   32   32   30   30
 -1.008087334727394   32   32   31   31
 -1.01139497284299   32   32   32   32
 -0.1981863014905986    1    1  0  0
 -0.2108970741761413    2    2  0  0
 -0.2171953080246839    3    3  0  0
 -0.2189042670715459    4    4  0  0
 -0.2193514597816012    5    5  0  0
 -0.2227045173792976    6    6  0  0
 -0.2236234426427026    7    7  0  0
 -0.2383138564918529    8    8  0  0
 -0.2407056100783219    9    9  0  0
 -0.241299232790484   10   10  0  0
 -0.2418189160668953   11   11  0  0
 -0.246631887072097   12   12  0  0
 -0.2479859692318474   13   13  0  0
 -0.2513965056395164   14   14  0  0
 -0.2560795413864874   15   15  0  0
 -0.2600485333476617   16   16  0  0
 -0.2704522456294714   17   17  0  0
 -0.2717756979604647   18   18  0  0
 -0.2726241802884989   19   19  0  0
 -0.2972310963967739   20   20  0  0
 -0.2986710559877913   21   21  0  0
 -0.3041564868583088   22   22  0  0
 -0.3096428872750462   23   23  0  0
 -0.3256718597885601   24   24  0  0
 -0.3836224923549711   25   25  0  0
 -0.3841570450795906   26   26  0  0
 -0.3879687948746265   27   27  0  0
 -0.4878065270341053   28   28  0  0
 -0.4889350324603883   29   29  0  0
 -0.4986134888325272   30   30  0  0
 -0.5023952569099545   31   31  0  0
 -0.5056974864214948   32   32  0  0
 -5012.742583525025  0  0  0  0
