 &FCI NORB=  15,NELEC=22,MS2=0,
  ORBSYM=1,1,1,1,1,1,1,1,1,1,1,1,1,1,1,
  ISYM=1,
 &END
 -0.8358608216062687    1    1    1    1
 -0.8650038670078904    2    2    1    1
 -0.8951630111107874    2    2    2    2
 -0.8679365556415909    3    3    1    1
 -0.8981979505927051    3    3    2    2
 -0.9012431796615971    3    3    3    3
 -0.8804347038595666    4    4    1    1
 -0.9111318580800921    4    4    2    2
 -0.9142209379627483    4    4    3    3
 -0.927385573917261    4    4    4    4
 -0.8824511721453598    5    5    1    1
 -0.9132186323609561    5    5    2    2
 -0.9163147871937346    5    5    3    3
 -0.929509574243814    5    5    4    4
 -0.9316384391892635    5    5    5    5
 -0.8832810994262237    6    6    1    1
 -0.9140774958089437    6    6    2    2
 -0.9171765625120246    6    6    3    3
 -0.9303837589894849    6    6    4    4
 -0.9325146260888795    6    6    5    5
 -0.9333916370243559    6    6    6    6
 -0.8854405017642165    7    7    1    1
 -0.9163121876673326    7    7    2    2
 -0.9194188308167889    7    7    3    3
 -0.9326583156008488    7    7    4    4
 -0.9347943921396835    7    7    5    5
 -0.9356735471485085    7    7    6    6
 -0.9379610359746853    7    7    7    7
 -0.8912976277131439    8    8    1    1
 -0.9223735276229946    8    8    2    2
 -0.925500720995948    8    8    3    3
 -0.9388277840302964    8    8    4    4
 -0.9409779905635234    8    8    5    5
 -0.9418629611202086    8    8    6    6
 -0.9441655815222901    8    8    7    7
 -0.9504111696974412    8    8    8    8
 -0.8933330872305639    9    9    1    1
 -0.924479955281995    9    9    2    2
 -0.9276142902374186    9    9    3    3
 -0.9409717883323451    9    9    4    4
 -0.9431269052997709    9    9    5    5
 -0.9440138968668192    9    9    6    6
 -0.9463217757711865    9    9    7    7
 -0.9525816270179509    9    9    8    8
 -0.9547570410194534    9    9    9    9
 -0.8941519288324099   10   10    1    1
 -0.9253273465387147   10   10    2    2
 -0.9284645544693951   10   10    3    3
 -0.9418342962338924   10   10    4    4
 -0.9439913886116719   10   10    5    5
 -0.9448791932075959   10   10    6    6
 -0.9471891875460446   10   10    7    7
 -0.9534547766600118   10   10    8    8
 -0.9556321846764131   10   10    9    9
 -0.9565081305022886   10   10   10   10
 -0.8971969421919703   11   11    1    1
 -0.9284785270499017   11   11    2    2
 -0.93162641866839   11   11    3    3
 -0.9450416907739559   11   11    4    4
 -0.9472061290790843   11   11    5    5
 -0.9480969570726751   11   11    6    6
 -0.9504148180425029   11   11    7    7
 -0.9567017444728055   11   11    8    8
 -0.9588865676009852   11   11    9    9
 -0.9597654964397651   11   11   10   10
 -0.9630339552603151   11   11   11   11
 -0.8987580884477864   12   12    1    1
 -0.9300941040853833   12   12    2    2
 -0.9332474731180077   12   12    3    3
 -0.9466860881495615   12   12    4    4
 -0.9488542926342176   12   12    5    5
 -0.9497466706919263   12   12    6    6
 -0.9520685648007501   12   12    7    7
 -0.9583664306482484   12   12    8    8
 -0.9605550554260834   12   12    9    9
 -0.961435513624139   12   12   10   10
 -0.9647096596489251   12   12   11   11
 -0.9663882798072049   12   12   12   12
 -0.9495279618191915   13   13    1    1
 -0.9826341151237915   13   13    2    2
 -0.9859656145660751   13   13    3    3
 -1.000163362441281   13   13    4    4
 -1.002454046454683   13   13    5    5
 -1.00339683398472   13   13    6    6
 -1.005849889383108   13   13    7    7
 -1.012503514867929   13   13    8    8
 -1.014815772694809   13   13    9    9
 -1.015745967025199   13   13   10   10
 -1.01920506602144   13   13   11   11
 -1.02097850961883   13   13   12   12
 -1.078652482531604   13   13   13   13
 -1.043377050094987   14   14    1    1
 -1.079755336953193   14   14    2    2
 -1.083416113886842   14   14    3    3
 -1.099017133437277   14   14    4    4
 -1.101534223217364   14   14    5    5
 -1.102570193627411   14   14    6    6
 -1.105265703194486   14   14    7    7
 -1.112576957217474   14   14    8    8
 -1.115117753115519   14   14    9    9
 -1.116139885643979   14   14   10   10
 -1.119940873768404   14   14   11   11
 -1.121889600318394   14   14   12   12
 -1.185263931717438   14   14   13   13
 -1.302412603300263   14   14   14   14
 -1.059242750704592   15   15    1    1
 -1.096174209599627   15   15    2    2
 -1.099890652690418   15   15    3    3
 -1.115728902976729   15   15    4    4
 -1.118284267887419   15   15    5    5
 -1.119335991371931   15   15    6    6
 -1.122072489139559   15   15    7    7
 -1.129494918856318   15   15    8    8
 -1.132074350362674   15   15    9    9
 -1.133112025545324   15   15   10   10
 -1.13697081189293   15   15   11   11
 -1.138949170982767   15   15   12   12
 -1.203287179096973   15   15   13   13
 -1.322217225639097   15   15   14   14
 -1.342322999137702   15   15   15   15
 -0.4179304108031344    1    1  0  0
 -0.4475815055553937    2    2  0  0
 -0.4506215898307985    3    3  0  0
 -0.4636927869586305    4    4  0  0
 -0.4658192195946317    5    5  0  0
 -0.466695818512178    6    6  0  0
 -0.4689805179873426    7    7  0  0
 -0.4752055848487206    8    8  0  0
 -0.4773785205097267    9    9  0  0
 -0.4782540652511443   10   10  0  0
 -0.4815169776301575   11   11  0  0
 -0.4831941399036024   12   12  0  0
 -0.5393262412658021   13   13  0  0
 -0.6512063016501316   14   14  0  0
 -0.6711614995688509   15   15  0  0
 -1750.008845094334  0  0  0  0
