 &FCI NORB=  70,NELEC=90,MS2=0,
  ORBSYM=1,1,1,1,1,1,1,1,1,1,1,1,1,1,1,1,1,1,1,1,1,1,1,1,1,1,1,1,1,1,1,1,1,1,1,1,1,1,1,1,1,1,1,1,1,1,1,1,1,1,1,1,1,1,1,1,1,1,1,1,1,1,1,1,1,1,1,1,1,1,
  ISYM=1,
 &END
 -0.2720905564774945    1    1    1    1
 -0.2726410509229223    2    2    1    1
 -0.2731926591303945    2    2    2    2
 -0.2728120881200119    3    3    1    1
 -0.273364042370464    3    3    2    2
 -0.2735355331251902    3    3    3    3
 -0.2743713244889366    4    4    1    1
 -0.2749264333911757    4    4    2    2
 -0.2750989042880339    4    4    3    3
 -0.2766712107777249    4    4    4    4
 -0.2764201400411135    5    5    1    1
 -0.2769793941132393    5    5    2    2
 -0.2771531529036354    5    5    3    3
 -0.2787372002922519    5    5    4    4
 -0.2808186171895633    5    5    5    5
 -0.2809071446476782    6    6    1    1
 -0.2814754768412372    6    6    2    2
 -0.2816520561804285    6    6    3    3
 -0.2832618167024247    6    6    4    4
 -0.285377020310086    6    6    5    5
 -0.2900094179514034    6    6    6    6
 -0.2811548244703672    7    7    1    1
 -0.2817236577705004    7    7    2    2
 -0.2819003928022052    7    7    3    3
 -0.2835115726729374    7    7    4    4
 -0.2856286412856883    7    7    5    5
 -0.2902651233778582    7    7    6    6
 -0.2905210542634225    7    7    7    7
 -0.2826927333877549    8    8    1    1
 -0.2832646781899099    8    8    2    2
 -0.2834423799572266    8    8    3    3
 -0.2850623729361648    8    8    4    4
 -0.2871910218541956    8    8    5    5
 -0.291852865371937    8    8    6    6
 -0.2921101961921881    8    8    7    7
 -0.2937080306822421    8    8    8    8
 -0.2837061141280819    9    9    1    1
 -0.2842801092052479    9    9    2    2
 -0.2844584479876953    9    9    3    3
 -0.2860842482247991    9    9    4    4
 -0.2882205278017103    9    9    5    5
 -0.2928990828294317    9    9    6    6
 -0.2931573361144877    9    9    7    7
 -0.2947608984302238    9    9    8    8
 -0.2958175404382834    9    9    9    9
 -0.2839465290110064   10   10    1    1
 -0.2845210104962982   10   10    2    2
 -0.2846995004044894   10   10    3    3
 -0.2863266783580194   10   10    4    4
 -0.2884647682357272   10   10    5    5
 -0.2931472879092678   10   10    6    6
 -0.293405760040271   10   10    7    7
 -0.2950106812278368   10   10    8    8
 -0.2960682186429814   10   10    9    9
 -0.2963191092744416   10   10   10   10
 -0.2841672542659626   11   11    1    1
 -0.2847421823232648   11   11    2    2
 -0.2849208109802219   11   11    3    3
 -0.286549253817214   11   11    4    4
 -0.2886890057347255   11   11    5    5
 -0.29337516535538   11   11    6    6
 -0.2936338384091668   11   11    7    7
 -0.2952400071789432   11   11    8    8
 -0.2962983666686396   11   11    9    9
 -0.2965494523294202   11   11   10   10
 -0.2967799744411026   11   11   11   11
 -0.2842181115342409   12   12    1    1
 -0.2847931424861238   12   12    2    2
 -0.2849718031121603   12   12    3    3
 -0.2866005373907348   12   12    4    4
 -0.2887406722585535   12   12    5    5
 -0.2934276705588005   12   12    6    6
 -0.2936863899071717   12   12    7    7
 -0.2952928461321519   12   12    8    8
 -0.2963513950359053   12   12    9    9
 -0.2966025256333584   12   12   10   10
 -0.2968330890014653   12   12   11   11
 -0.2968862130677137   12   12   12   12
 -0.2844326114623363   13   13    1    1
 -0.2850080763911292   13   13    2    2
 -0.2851868718526667   13   13    3    3
 -0.2868168353399772   13   13    4    4
 -0.2889585853714911   13   13    5    5
 -0.2936491209579194   13   13    6    6
 -0.2939080355622555   13   13    7    7
 -0.295515704182684   13   13    8    8
 -0.2965750519752293   13   13    9    9
 -0.2968263721014031   13   13   10   10
 -0.2970571094761051   13   13   11   11
 -0.2971102736351834   13   13   12   12
 -0.2973345033015729   13   13   13   13
 -0.285151751491925   14   14    1    1
 -0.2857286713870236   14   14    2    2
 -0.2859079189028205   14   14    3    3
 -0.2875420034787237   14   14    4    4
 -0.2896891685650483   14   14    5    5
 -0.2943915633819743   14   14    6    6
 -0.2946511326083499   14   14    7    7
 -0.2962628659485492   14   14    8    8
 -0.2973248921238543   14   14    9    9
 -0.2975768476707067   14   14   10   10
 -0.2978081684260613   14   14   11   11
 -0.297861467001776   14   14   12   12
 -0.2980862635951718   14   14   13   13
 -0.2988399245882615   14   14   14   14
 -0.2857969069079621   15   15    1    1
 -0.2863751320834701   15   15    2    2
 -0.2865547851465063   15   15    3    3
 -0.2881925668363459   15   15    4    4
 -0.2903445898805029   15   15    5    5
 -0.2950576238587478   15   15    6    6
 -0.2953177803601141   15   15    7    7
 -0.296933160244612   15   15    8    8
 -0.2979975892525681   15   15    9    9
 -0.2982501148484726   15   15   10   10
 -0.2984819589666941   15   15   11   11
 -0.2985353781303576   15   15   12   12
 -0.2987606833257134   15   15   13   13
 -0.2995160494756854   15   15   14   14
 -0.3001937040946673   15   15   15   15
 -0.2860419396266393   16   16    1    1
 -0.2866206605530926   16   16    2    2
 -0.2868004676446623   16   16    3    3
 -0.2884396535137997   16   16    4    4
 -0.2905935216306094   16   16    5    5
 -0.2953105964067111   16   16    6    6
 -0.2955709759575691   16   16    7    7
 -0.2971877408148054   16   16    8    8
 -0.2982530824286273   16   16    9    9
 -0.2985058245315401   16   16   10   10
 -0.298737867425162   16   16   11   11
 -0.2987913323886315   16   16   12   12
 -0.2990168307531337   16   16   13   13
 -0.2997728445288038   16   16   14   14
 -0.3004510801462135   16   16   15   15
 -0.3007086768633866   16   16   16   16
 -0.2868764718395982   17   17    1    1
 -0.2874568811941753   17   17    2    2
 -0.287637212875986   17   17    3    3
 -0.2892811810977134   17   17    4    4
 -0.2914413331613048   17   17    5    5
 -0.296172170083114   17   17    6    6
 -0.2964333092957303   17   17    7    7
 -0.2980547910918739   17   17    8    8
 -0.2991232408579327   17   17    9    9
 -0.2993767203402198   17   17   10   10
 -0.2996094402229216   17   17   11   11
 -0.2996630611713293   17   17   12   12
 -0.2998892174311367   17   17   13   13
 -0.3006474368898267   17   17   14   14
 -0.3013276512711597   17   17   15   15
 -0.3015859995311266   17   17   16   16
 -0.3024658818026378   17   17   17   17
 -0.287272185458102   18   18    1    1
 -0.2878533954216814   18   18    2    2
 -0.2880339758506336   18   18    3    3
 -0.2896802117404257   18   18    4    4
 -0.2918433434892598   18   18    5    5
 -0.2965807060650721   18   18    6    6
 -0.2968422054896713   18   18    7    7
 -0.298465923936401   18   18    8    8
 -0.2995358475079637   18   18    9    9
 -0.2997896766365027   18   18   10   10
 -0.3000227175299388   18   18   11   11
 -0.300076412442375   18   18   12   12
 -0.3003028806591418   18   18   13   13
 -0.3010621459957448   18   18   14   14
 -0.3017432986558167   18   18   15   15
 -0.3020020032779632   18   18   16   16
 -0.3028830992474653   18   18   17   17
 -0.3033008921965289   18   18   18   18
 -0.2887317210293449   19   19    1    1
 -0.2893158839297527   19   19    2    2
 -0.2894973818285222   19   19    3    3
 -0.2911519817018862   19   19    4    4
 -0.2933261036122901   19   19    5    5
 -0.2980875351705632   19   19    6    6
 -0.2983503631878052   19   19    7    7
 -0.2999823312143781   19   19    8    8
 -0.3010576907160109   19   19    9    9
 -0.3013128094669389   19   19   10   10
 -0.3015470343645729   19   19   11   11
 -0.301601002083214   19   19   12   12
 -0.3018286209105686   19   19   13   13
 -0.3025917438248378   19   19   14   14
 -0.3032763571977359   19   19   15   15
 -0.3035363762130522   19   19   16   16
 -0.3044219487416306   19   19   17   17
 -0.3048418643593738   19   19   18   18
 -0.3063906656953855   19   19   19   19
 -0.2888555401137508   20   20    1    1
 -0.2894399535253087   20   20    2    2
 -0.289621529257243   20   20    3    3
 -0.2912768386856245   20   20    4    4
 -0.2934518929417484   20   20    5    5
 -0.298215366381994   20   20    6    6
 -0.2984783071098321   20   20    7    7
 -0.3001109749860307   20   20    8    8
 -0.3011867956424975   20   20    9    9
 -0.3014420237979968   20   20   10   10
 -0.3016763491401274   20   20   11   11
 -0.3017303400021678   20   20   12   12
 -0.3019580564410861   20   20   13   13
 -0.3027215066113291   20   20   14   14
 -0.3034064135723397   20   20   15   15
 -0.3036665440936461   20   20   16   16
 -0.304552496389225   20   20   17   17
 -0.3049725920826701   20   20   18   18
 -0.3065220576032843   20   20   19   19
 -0.3066535058570036   20   20   20   20
 -0.288902216448962   21   21    1    1
 -0.2894867242962239   21   21    2    2
 -0.2896683293690867   21   21    3    3
 -0.2913239062798842   21   21    4    4
 -0.2934993120042941   21   21    5    5
 -0.2982635551769912   21   21    6    6
 -0.298526538393575   21   21    7    7
 -0.3001594700935279   21   21    8    8
 -0.3012354645924821   21   21    9    9
 -0.301490733990448   21   21   10   10
 -0.3017250971973473   21   21   11   11
 -0.3017790967838025   21   21   12   12
 -0.302006850019553   21   21   13   13
 -0.3027704235561544   21   21   14   14
 -0.3034554411916803   21   21   15   15
 -0.3037156137476294   21   21   16   16
 -0.3046017092047566   21   21   17   17
 -0.3050218727817097   21   21   18   18
 -0.3065715886813611   21   21   19   19
 -0.3067030581758804   21   21   20   20
 -0.3067526185019454   21   21   21   21
 -0.2894032377937182   22   22    1    1
 -0.289988759308896   22   22    2    2
 -0.2901706793257525   22   22    3    3
 -0.2918291273788362   22   22    4    4
 -0.2940083057454736   22   22    5    5
 -0.298780811186112   22   22    6    6
 -0.2990442504746721   22   22    7    7
 -0.3006800140450284   22   22    8    8
 -0.3017578745601642   22   22    9    9
 -0.302013586652612   22   22   10   10
 -0.3022483562979614   22   22   11   11
 -0.3023024495318305   22   22   12   12
 -0.3025305977428562   22   22   13   13
 -0.3032954954875056   22   22   14   14
 -0.3039817010974997   22   22   15   15
 -0.3042423248511081   22   22   16   16
 -0.3051299569968179   22   22   17   17
 -0.3055508492318026   22   22   18   18
 -0.3071032526869654   22   22   19   19
 -0.3072349501791226   22   22   20   20
 -0.3072845964539265   22   22   21   21
 -0.3078174969751845   22   22   22   22
 -0.2940909217404374   23   23    1    1
 -0.2946859273921027   23   23    2    2
 -0.2948707941055791   23   23    3    3
 -0.2965561053008107   23   23    4    4
 -0.2987705814738037   23   23    5    5
 -0.3036203908081728   23   23    6    6
 -0.303888097222883   23   23    7    7
 -0.3055503564975992   23   23    8    8
 -0.3066456759377703   23   23    9    9
 -0.3069055299931065   23   23   10   10
 -0.3071441023806301   23   23   11   11
 -0.3071990718036737   23   23   12   12
 -0.307430915504475   23   23   13   13
 -0.3082082028785764   23   23   14   14
 -0.3089055234817774   23   23   15   15
 -0.3091703687561789   23   23   16   16
 -0.31007237855361   23   23   17   17
 -0.3105000882996505   23   23   18   18
 -0.3120776372121035   23   23   19   19
 -0.3122114679085209   23   23   20   20
 -0.3122619183417276   23   23   21   21
 -0.3128034506572865   23   23   22   22
 -0.3178701656163282   23   23   23   23
 -0.2946774113189186   24   24    1    1
 -0.2952736035580915   24   24    2    2
 -0.2954588389412304   24   24    3    3
 -0.2971475110611945   24   24    4    4
 -0.2993664034439419   24   24    5    5
 -0.3042258844900911   24   24    6    6
 -0.3044941247771881   24   24    7    7
 -0.3061596990054417   24   24    8    8
 -0.3072572027817799   24   24    9    9
 -0.3075175750499685   24   24   10   10
 -0.3077566232094681   24   24   11   11
 -0.3078117022550515   24   24   12   12
 -0.3080440083091739   24   24   13   13
 -0.308822845785338   24   24   14   14
 -0.3095215570172064   24   24   15   15
 -0.3097869304581777   24   24   16   16
 -0.3106907390848375   24   24   17   17
 -0.3111193017892324   24   24   18   18
 -0.3126999967219406   24   24   19   19
 -0.3128340943096591   24   24   20   20
 -0.3128846453534291   24   24   21   21
 -0.313427257617521   24   24   22   22
 -0.3185040768514687   24   24   23   23
 -0.3191392522614123   24   24   24   24
 -0.2950802466731519   25   25    1    1
 -0.2956772539300446   25   25    2    2
 -0.2958627425370762   25   25    3    3
 -0.2975537231367726   25   25    4    4
 -0.2997756488307434   25   25    5    5
 -0.3046417729743728   25   25    6    6
 -0.3049103799562585   25   25    7    7
 -0.3065782310885382   25   25    8    8
 -0.3076772351947474   25   25    9    9
 -0.3079379634018402   25   25   10   10
 -0.3081773383493674   25   25   11   11
 -0.3082324926901244   25   25   12   12
 -0.308465116315557   25   25   13   13
 -0.3092450184925042   25   25   14   14
 -0.3099446848894982   25   25   15   15
 -0.3102104211061694   25   25   16   16
 -0.3111154652739812   25   25   17   17
 -0.311544613840075   25   25   18   18
 -0.313127469643548   25   25   19   19
 -0.3132617505478262   25   25   20   20
 -0.3133123706968172   25   25   21   21
 -0.3138557247327423   25   25   22   22
 -0.3189394841738316   25   25   23   23
 -0.3195755278929887   25   25   24   24
 -0.320012399930132   25   25   25   25
 -0.2956636436027936   26   26    1    1
 -0.2962618311901374   26   26    2    2
 -0.2964476865227803   26   26    3    3
 -0.2981420103245415   26   26    4    4
 -0.3003683289409201   26   26    5    5
 -0.305244073795921   26   26    6    6
 -0.3055132118350031   26   26    7    7
 -0.3071843604405656   26   26    8    8
 -0.3082855373646047   26   26    9    9
 -0.3085467810519345   26   26   10   10
 -0.3087866292626197   26   26   11   11
 -0.3088418926478601   26   26   12   12
 -0.3090749761885542   26   26   13   13
 -0.3098564202936399   26   26   14   14
 -0.3105574699863049   26   26   15   15
 -0.310823731584443   26   26   16   16
 -0.311730565095983   26   26   17   17
 -0.312160562122652   26   26   18   18
 -0.3137465473569366   26   26   19   19
 -0.3138810937451574   26   26   20   20
 -0.3139318139741768   26   26   21   21
 -0.3144762422639019   26   26   22   22
 -0.3195700526985171   26   26   23   23
 -0.3202073539262911   26   26   24   24
 -0.3206450896939214   26   26   25   25
 -0.3212790303352933   26   26   26   26
 -0.2960250166791303   27   27    1    1
 -0.2966239353975865   27   27    2    2
 -0.2968100178907707   27   27    3    3
 -0.2985064125694145   27   27    4    4
 -0.3007354522900774   27   27    5    5
 -0.305617156494345   27   27    6    6
 -0.3058866234857458   27   27    7    7
 -0.3075598146424493   27   27    8    8
 -0.308662337473235   27   27    9    9
 -0.3089239004640605   27   27   10   10
 -0.3091640418277513   27   27   11   11
 -0.3092193727583255   27   27   12   12
 -0.3094527411839488   27   27   13   13
 -0.3102351404043026   27   27   14   14
 -0.3109370469506579   27   27   15   15
 -0.3112036339854025   27   27   16   16
 -0.3121115758686442   27   27   17   17
 -0.3125420984565437   27   27   18   18
 -0.3141300221515607   27   27   19   19
 -0.3142647329882798   27   27   20   20
 -0.3143155152097883   27   27   21   21
 -0.3148606089236539   27   27   22   22
 -0.319960645236854   27   27   23   23
 -0.3205987254021478   27   27   24   24
 -0.3210369961896372   27   27   25   25
 -0.3216717116610727   27   27   26   26
 -0.3220648729391959   27   27   27   27
 -0.2963588072323579   28   28    1    1
 -0.2969584012768815   28   28    2    2
 -0.2971446935921241   28   28    3    3
 -0.2988430010838288   28   28    4    4
 -0.301074554215047   28   28    5    5
 -0.3059617629093245   28   28    6    6
 -0.3062315337451003   28   28    7    7
 -0.3079066115511422   28   28    8    8
 -0.3090103775596489   28   28    9    9
 -0.309272235482492   28   28   10   10
 -0.3095126476236986   28   28   11   11
 -0.309568040944074   28   28   12   12
 -0.3098016725102141   28   28   13   13
 -0.3105849539447522   28   28   14   14
 -0.3112876519437254   28   28   15   15
 -0.3115545395754764   28   28   16   16
 -0.3124635052317319   28   28   17   17
 -0.3128945132663494   28   28   18   18
 -0.3144842274652049   28   28   19   19
 -0.3146190901985618   28   28   20   20
 -0.3146699296808586   28   28   21   21
 -0.3152156380290356   28   28   22   22
 -0.3203214250181805   28   28   23   23
 -0.3209602246670292   28   28   24   24
 -0.3213989896379166   28   28   25   25
 -0.3220344207989608   28   28   26   26
 -0.3224280253961049   28   28   27   27
 -0.3227915873348234   28   28   28   28
 -0.2965590515539416   29   29    1    1
 -0.2971590507333886   29   29    2    2
 -0.2973454689230016   29   29    3    3
 -0.2990449239305663   29   29    4    4
 -0.3012779848821424   29   29    5    5
 -0.3061684957755298   29   29    6    6
 -0.3064384488906126   29   29    7    7
 -0.308114658516633   29   29    8    8
 -0.3092191703200012   29   29    9    9
 -0.3094812051755381   29   29   10   10
 -0.3097217797589092   29   29   11   11
 -0.309777210507556   29   29   12   12
 -0.3100109999343479   29   29   13   13
 -0.3107948106180786   29   29   14   14
 -0.3114979834174648   29   29   15   15
 -0.3117650513803936   29   29   16   16
 -0.3126746312084123   29   29   17   17
 -0.3131059304674152   29   29   18   18
 -0.3146967188075936   29   29   19   19
 -0.3148316726652765   29   29   20   20
 -0.3148825464988981   29   29   21   21
 -0.3154286235724016   29   29   22   22
 -0.3205378604500831   29   29   23   23
 -0.3211770917243778   29   29   24   24
 -0.3216161531608729   29   29   25   25
 -0.3222520136713364   29   29   26   26
 -0.3226458842200351   29   29   27   27
 -0.3230096918110237   29   29   28   28
 -0.3232279436565001   29   29   29   29
 -0.2966222828382125   30   30    1    1
 -0.2972224099473871   30   30    2    2
 -0.2974088678844348   30   30    3    3
 -0.2991086852438553   30   30    4    4
 -0.3013422223208813   30   30    5    5
 -0.3062337759519053   30   30    6    6
 -0.3065037866254475   30   30    7    7
 -0.3081803536470248   30   30    8    8
 -0.3092851009505386   30   30    9    9
 -0.3095471916762313   30   30   10   10
 -0.3097878175540742   30   30   11   11
 -0.3098432601214714   30   30   12   12
 -0.3100770993960276   30   30   13   13
 -0.3108610772011323   30   30   14   14
 -0.3115643999285647   30   30   15   15
 -0.3118315248347908   30   30   16   16
 -0.3127412986002409   30   30   17   17
 -0.313172689819364   30   30   18   18
 -0.3147638173418713   30   30   19   19
 -0.3148987999739439   30   30   20   20
 -0.3149496846547065   30   30   21   21
 -0.3154958781608547   30   30   22   22
 -0.3206062044121625   30   30   23   23
 -0.3212455719811149   30   30   24   24
 -0.3216847270327547   30   30   25   25
 -0.3223207231191734   30   30   26   26
 -0.3227146776475736   30   30   27   27
 -0.323078562808345   30   30   28   28
 -0.3232968611887169   30   30   29   29
 -0.323365793415289   30   30   30   30
 -0.296784652078917   31   31    1    1
 -0.2973851076940355   31   31    2    2
 -0.2975716676970285   31   31    3    3
 -0.2992724155261741   31   31    4    4
 -0.3015071752278655   31   31    5    5
 -0.3064014064657143   31   31    6    6
 -0.3066715649414635   31   31    7    7
 -0.3083490497056718   31   31    8    8
 -0.3094544017411671   31   31    9    9
 -0.3097166359337354   31   31   10   10
 -0.309957393528726   31   31   11   11
 -0.3100128664450488   31   31   12   12
 -0.3102468337218073   31   31   13   13
 -0.3110312406716132   31   31   14   14
 -0.3117349483936458   31   31   15   15
 -0.3120022195224275   31   31   16   16
 -0.3129124912925254   31   31   17   17
 -0.3133441186525885   31   31   18   18
 -0.3149361171486626   31   31   19   19
 -0.3150711736694103   31   31   20   20
 -0.3151220862041389   31   31   21   21
 -0.3156685786933036   31   31   22   22
 -0.3207817023062433   31   31   23   23
 -0.3214214198611296   31   31   24   24
 -0.3218608153035844   31   31   25   25
 -0.3224971595304079   31   31   26   26
 -0.3228913297071305   31   31   27   27
 -0.3232554140564344   31   31   28   28
 -0.3234738319320173   31   31   29   29
 -0.3235428018916727   31   31   30   30
 -0.323719907261424   31   31   31   31
 -0.2977562352718917   32   32    1    1
 -0.2983586565970957   32   32    2    2
 -0.2985458273411162   32   32    3    3
 -0.3002521429042895   32   32    4    4
 -0.3024942185333757   32   32    5    5
 -0.3074044720041126   32   32    6    6
 -0.3076755148970062   32   32    7    7
 -0.3093584912390033   32   32    8    8
 -0.3104674618627661   32   32    9    9
 -0.3107305545307721   32   32   10   10
 -0.3109721002933153   32   32   11   11
 -0.3110277548111892   32   32   12   12
 -0.3112624880260521   32   32   13   13
 -0.3120494628869799   32   32   14   14
 -0.312755474335269   32   32   15   15
 -0.3130236204288942   32   32   16   16
 -0.3139368721534697   32   32   17   17
 -0.3143699125309707   32   32   18   18
 -0.3159671227486456   32   32   19   19
 -0.3161026214035965   32   32   20   20
 -0.316153700610566   32   32   21   21
 -0.316701982150862   32   32   22   22
 -0.3218318445841253   32   32   23   23
 -0.3224736563808137   32   32   24   24
 -0.3229144902710587   32   32   25   25
 -0.3235529176964283   32   32   26   26
 -0.3239483782670988   32   32   27   27
 -0.3243136545184507   32   32   28   28
 -0.3245327874281012   32   32   29   29
 -0.3246019831745455   32   32   30   30
 -0.3247796683337146   32   32   31   31
 -0.3258428987432475   32   32   32   32
 -0.2977883399526872   33   33    1    1
 -0.2983908262321794   33   33    2    2
 -0.2985780171573289   33   33    3    3
 -0.3002845166989048   33   33    4    4
 -0.3025268340731296   33   33    5    5
 -0.3074376169773482   33   33    6    6
 -0.3077086890946358   33   33    7    7
 -0.3093918468985531   33   33    8    8
 -0.3105009370937764   33   33    9    9
 -0.3107640581289672   33   33   10   10
 -0.311005629935464   33   33   11   11
 -0.3110612904541208   33   33   12   12
 -0.3112960489783946   33   33   13   13
 -0.3120831086925471   33   33   14   14
 -0.3127891962644215   33   33   15   15
 -0.313057371270102   33   33   16   16
 -0.3139707214633295   33   33   17   17
 -0.3144038085321218   33   33   18   18
 -0.3160011909642397   33   33   19   19
 -0.3161367042289301   33   33   20   20
 -0.3161877889433633   33   33   21   21
 -0.3167361296004862   33   33   22   22
 -0.3218665451459145   33   33   23   23
 -0.3225084261440517   33   33   24   24
 -0.3229493075659002   33   33   25   25
 -0.3235878038278089   33   33   26   26
 -0.3239833070378396   33   33   27   27
 -0.3243486226740173   33   33   28   28
 -0.3245677792110223   33   33   29   29
 -0.3246369824182923   33   33   30   30
 -0.3248146867358353   33   33   31   31
 -0.325878031785026   33   33   32   32
 -0.3259131686149203   33   33   33   33
 -0.2979272443478994   34   34    1    1
 -0.2985300116591886   34   34    2    2
 -0.2987172899001888   34   34    3    3
 -0.3004245854443441   34   34    4    4
 -0.3026679487552191   34   34    5    5
 -0.3075810223110106   34   34    6    6
 -0.3078522208708195   34   34    7    7
 -0.3095361637894826   34   34    8    8
 -0.3106457713236414   34   34    9    9
 -0.3109090150925439   34   34   10   10
 -0.3111506995810406   34   34   11   11
 -0.3112063860627377   34   34   12   12
 -0.3114412540909325   34   34   13   13
 -0.3122286809317952   34   34   14   14
 -0.3129350978606456   34   34   15   15
 -0.3132033979574798   34   34   16   16
 -0.3141171741860457   34   34   17   17
 -0.3145504632697905   34   34   18   18
 -0.3161485908064369   34   34   19   19
 -0.3162841672817557   34   34   20   20
 -0.3163352758248297   34   34   21   21
 -0.3168838722573378   34   34   22   22
 -0.3220166809027398   34   34   23   23
 -0.3226588613084759   34   34   24   24
 -0.3230999483809797   34   34   25   25
 -0.3237387424716654   34   34   26   26
 -0.3241344301655285   34   34   27   27
 -0.324499916204441   34   34   28   28
 -0.3247191749677663   34   34   29   29
 -0.3247884104551103   34   34   30   30
 -0.3249661976634433   34   34   31   31
 -0.3260300387135889   34   34   32   32
 -0.3260651919331783   34   34   33   33
 -0.3262172861632359   34   34   34   34
 -0.2979533818377238   35   35    1    1
 -0.2985562020304623   35   35    2    2
 -0.2987434967015918   35   35    3    3
 -0.3004509420286917   35   35    4    4
 -0.302694502152335   35   35    5    5
 -0.3076080067375557   35   35    6    6
 -0.3078792290899171   35   35    7    7
 -0.3095633197427727   35   35    8    8
 -0.3106730246240395   35   35    9    9
 -0.3109362914876118   35   35   10   10
 -0.3111779971793586   35   35   11   11
 -0.3112336885464929   35   35   12   12
 -0.311468577179922   35   35   13   13
 -0.3122560731026207   35   35   14   14
 -0.3129625520062171   35   35   15   15
 -0.3132308756413184   35   35   16   16
 -0.3141447320364932   35   35   17   17
 -0.3145780591331732   35   35   18   18
 -0.3161763268753329   35   35   19   19
 -0.3163119152449273   35   35   20   20
 -0.3163630282718107   35   35   21   21
 -0.3169116728332965   35   35   22   22
 -0.3220449317857325   35   35   23   23
 -0.3226871685306726   35   35   24   24
 -0.3231282943002379   35   35   25   25
 -0.3237671444330425   35   35   26   26
 -0.3241628668410288   35   35   27   27
 -0.3245283849444396   35   35   28   28
 -0.324747662943581   35   35   29   29
 -0.3248169045050316   35   35   30   30
 -0.324994707310835   35   35   31   31
 -0.3260586416929438   35   35   32   32
 -0.3260937979965644   35   35   33   33
 -0.3262459055700186   35   35   34   34
 -0.3262745274876139   35   35   35   35
 -0.2979816507179377   36   36    1    1
 -0.2985845281043611   36   36    2    2
 -0.2987718405454202   36   36    3    3
 -0.300479447869565   36   36    4    4
 -0.30272322085514   36   36    5    5
 -0.3076371916182295   36   36    6    6
 -0.3079084397033151   36   36    7    7
 -0.3095926901373978   36   36    8    8
 -0.3107025003039751   36   36    9    9
 -0.3109657921454798   36   36   10   10
 -0.3112075207695028   36   36   11   11
 -0.311263217420459   36   36   12   12
 -0.3114981283393833   36   36   13   13
 -0.3122856989772195   36   36   14   14
 -0.3129922449093133   36   36   15   15
 -0.3132605940021176   36   36   16   16
 -0.3141745371011144   36   36   17   17
 -0.314607905310507   36   36   18   18
 -0.3162063246912858   36   36   19   19
 -0.3163419259250785   36   36   20   20
 -0.3163930438014052   36   36   21   21
 -0.3169417404165622   36   36   22   22
 -0.3220754863964705   36   36   23   23
 -0.3227177840748141   36   36   24   24
 -0.3231589516970056   36   36   25   25
 -0.3237978624419025   36   36   26   26
 -0.3241936223947869   36   36   27   27
 -0.3245591751774063   36   36   28   28
 -0.3247784739809549   36   36   29   29
 -0.3248477221118272   36   36   30   30
 -0.3250255417870019   36   36   31   31
 -0.3260895771118603   36   36   32   32
 -0.3261247367510005   36   36   33   33
 -0.3262768587559431   36   36   34   34
 -0.3263054833890959   36   36   35   35
 -0.3263364422275765   36   36   36   36
 -0.2980680183649977   37   37    1    1
 -0.2986710704907086   37   37    2    2
 -0.2988584372228112   37   37    3    3
 -0.3005665394835617   37   37    4    4
 -0.3028109628091586   37   37    5    5
 -0.3077263578481775   37   37    6    6
 -0.3079976845523956   37   37    7    7
 -0.3096824231532721   37   37    8    8
 -0.310792554989632   37   37    9    9
 -0.3110559231442143   37   37   10   10
 -0.3112977218313852   37   37   11   11
 -0.3113534346255794   37   37   12   12
 -0.3115884136315932   37   37   13   13
 -0.3123762125406089   37   37   14   14
 -0.3130829632595061   37   37   15   15
 -0.3133513901311926   37   37   16   16
 -0.3142655981294368   37   37   17   17
 -0.31469909194721   37   37   18   18
 -0.3162979746173242   37   37   19   19
 -0.3164336151540721   37   37   20   20
 -0.3164847478465149   37   37   21   21
 -0.3170336034970872   37   37   22   22
 -0.3221688374530499   37   37   23   23
 -0.3228113212963437   37   37   24   24
 -0.3232526167875144   37   37   25   25
 -0.3238917127156855   37   37   26   26
 -0.3242875873764918   37   37   27   27
 -0.3246532461117215   37   37   28   28
 -0.3248726084773103   37   37   29   29
 -0.3249418766792108   37   37   30   30
 -0.3251197478940253   37   37   31   31
 -0.3261840916211869   37   37   32   32
 -0.3262192614510731   37   37   33   33
 -0.326371427547387   37   37   34   34
 -0.3264000604771656   37   37   35   35
 -0.326431028288823   37   37   36   36
 -0.3265256417650983   37   37   37   37
 -0.2980821656146142   38   38    1    1
 -0.2986852463630837   38   38    2    2
 -0.2988726219882034   38   38    3    3
 -0.3005808053208821   38   38    4    4
 -0.3028253351738993   38   38    5    5
 -0.3077409635130923   38   38    6    6
 -0.3080123030953327   38   38    7    7
 -0.3096971216592246   38   38    8    8
 -0.3108073061859478   38   38    9    9
 -0.3110706868408146   38   38   10   10
 -0.311312497004515   38   38   11   11
 -0.3113682124430143   38   38   12   12
 -0.311603202601874   38   38   13   13
 -0.3123910389023142   38   38   14   14
 -0.3130978231658328   38   38   15   15
 -0.3133662627779066   38   38   16   16
 -0.3142805141673499   38   38   17   17
 -0.3147140285601088   38   38   18   18
 -0.3163129871182447   38   38   19   19
 -0.316448634092921   38   38   20   20
 -0.3164997692122828   38   38   21   21
 -0.3170486509132779   38   38   22   22
 -0.3221841286036641   38   38   23   23
 -0.3228266429412704   38   38   24   24
 -0.323267959377719   38   38   25   25