 &FCI NORB=  27,NELEC=44,MS2=0,
  ORBSYM=1,1,1,1,1,1,1,1,1,1,1,1,1,1,1,1,1,1,1,1,1,1,1,1,1,1,1,
  ISYM=1,
 &END
 -1.080671641581953    1    1    1    1
 -1.065828752169077    2    2    1    1
 -1.051189727980054    2    2    2    2
 -1.061929080517416    3    3    1    1
 -1.047343617829265    3    3    2    2
 -1.043511579889132    3    3    3    3
 -1.058398344012656    4    4    1    1
 -1.043861375547421    4    4    2    2
 -1.04004207849224    4    4    3    3
 -1.036584112606957    4    4    4    4
 -1.047188464904436    5    5    1    1
 -1.032805462722327    5    5    2    2
 -1.02902661722162    5    5    3    3
 -1.025605275901893    5    5    4    4
 -1.014742720021443    5    5    5    5
 -0.9456720098839163    6    6    1    1
 -0.9326833234749606    6    6    2    2
 -0.9292708064931005    6    6    3    3
 -0.9261811365523406    6    6    4    4
 -0.9163716176393539    6    6    5    5
 -0.8275367982903311    6    6    6    6
 -0.9412651910316538    7    7    1    1
 -0.9283370317267415    7    7    2    2
 -0.9249404170281382    7    7    3    3
 -0.9218651449077644    7    7    4    4
 -0.9121013382210311    7    7    5    5
 -0.8236804879358622    7    7    6    6
 -0.8198421479358002    7    7    7    7
 -0.9410602096495451    8    8    1    1
 -0.9281348657381986    8    8    2    2
 -0.9247389907278171    8    8    3    3
 -0.9216643883161879    8    8    4    4
 -0.9119027079150205    8    8    5    5
 -0.8235011132320681    8    8    6    6
 -0.8196636091157142    8    8    7    7
 -0.8194851091764181    8    8    8    8
 -0.8631283683342622    9    9    1    1
 -0.8512734084858223    9    9    2    2
 -0.8481587554309779    9    9    3    3
 -0.845338769487874    9    9    4    4
 -0.836385481281163    9    9    5    5
 -0.7553046711539781    9    9    6    6
 -0.7517849615408621    9    9    7    7
 -0.751621243683309    9    9    8    8
 -0.6893773756594586    9    9    9    9
 -0.837504671047794   10   10    1    1
 -0.826001649466759   10   10    2    2
 -0.8229794611366967   10   10    3    3
 -0.8202431921339799   10   10    4    4
 -0.8115557002504394   10   10    5    5
 -0.7328819366422445   10   10    6    6
 -0.7294667166704977   10   10    7    7
 -0.7293078591060088   10   10    8    8
 -0.6689118251827338   10   10    9    9
 -0.6490538356314235   10   10   10   10
 -0.8287616708762301   11   11    1    1
 -0.817378733305629   11   11    2    2
 -0.8143880946420958   11   11    3    3
 -0.8116803904954177   11   11    4    4
 -0.8030835903365373   11   11    5    5
 -0.7252311292864089   11   11    6    6
 -0.7218515619740812   11   11    7    7
 -0.7216943627785085   11   11    8    8
 -0.6619288238879266   11   11    9    9
 -0.6422781387398704   11   11   10   10
 -0.635573175685552   11   11   11   11
 -0.8254395182082026   12   12    1    1
 -0.8141022099876898   12   12    2    2
 -0.8111235595212032   12   12    3    3
 -0.8084267094075617   12   12    4    4
 -0.7998643701601689   12   12    5    5
 -0.7223239864783345   12   12    6    6
 -0.7189579664124083   12   12    7    7
 -0.7188013973614784   12   12    8    8
 -0.6592754330693111   12   12    9    9
 -0.6397035191511358   12   12   10   10
 -0.63302543343886   12   12   11   11
 -0.6304879040060561   12   12   12   12
 -0.7973023726159874   13   13    1    1
 -0.7863515245600144   13   13    2    2
 -0.7834744087547539   13   13    3    3
 -0.780869487440999   13   13    4    4
 -0.7725990166839066   13   13    5    5
 -0.6977017885777445   13   13    6    6
 -0.6944505076230094   13   13    7    7
 -0.6942992756150536   13   13    8    8
 -0.636802400901056   13   13    9    9
 -0.6178976440298675   13   13   10   10
 -0.6114471973702645   13   13   11   11
 -0.6089961658982687   13   13   12   12
 -0.5882370267887473   13   13   13   13
 -0.7869116111699644   14   14    1    1
 -0.7761034789187971   14   14    2    2
 -0.7732638588303584   14   14    3    3
 -0.7706928858866153   14   14    4    4
 -0.762530199191925   14   14    5    5
 -0.68860906153394   14   14    6    6
 -0.6854001525649847   14   14    7    7
 -0.6852508914726709   14   14    8    8
 -0.6285033388848383   14   14    9    9
 -0.6098449563197981   14   14   10   10
 -0.6034785744451027   14   14   11   11
 -0.6010594857895299   14   14   12   12
 -0.5805708880325999   14   14   13   13
 -0.5730046574439974   14   14   14   14
 -0.7853710318979082   15   15    1    1
 -0.7745840593097567   15   15    2    2
 -0.7717499984986077   15   15    3    3
 -0.7691840588871599   15   15    4    4
 -0.7610373527241425   15   15    5    5
 -0.6872609344613555   15   15    6    6
 -0.6840583077464338   15   15    7    7
 -0.683909338870605   15   15    8    8
 -0.6272728840249023   15   15    9    9
 -0.6086510299810095   15   15   10   10
 -0.6022971119152285   15   15   11   11
 -0.5998827592398943   15   15   12   12
 -0.579434273115033   15   15   13   13
 -0.5718828553438384   15   15   14   14
 -0.5707632494561108   15   15   15   15
 -0.777763102450709   16   16    1    1
 -0.7670806238190018   16   16    2    2
 -0.7642740167002152   16   16    3    3
 -0.7617329334773238   16   16    4    4
 -0.7536651448745396   16   16    5    5
 -0.6806034025575332   16   16    6    6
 -0.6774317998517784   16   16    7    7
 -0.6772842740450864   16   16    8    8
 -0.6211964594408811   16   16    9    9
 -0.6027549962517409   16   16   10   10
 -0.5964626289159899   16   16   11   11
 -0.594071664198791   16   16   12   12
 -0.5738212636072908   16   16   13   13
 -0.566342996807161   16   16   14   14
 -0.5652342365990632   16   16   15   15
 -0.559758783573001   16   16   16   16
 -0.7614651607664431   17   17    1    1
 -0.7510065323189812   17   17    2    2
 -0.7482587373487892   17   17    3    3
 -0.7457709022499746   17   17    4    4
 -0.7378721732847007   17   17    5    5
 -0.6663414318751445   17   17    6    6
 -0.6632362897610288   17   17    7    7
 -0.6630918553416588   17   17    8    8
 -0.6081793548256854   17   17    9    9
 -0.5901243305029329   17   17   10   10
 -0.5839638190440818   17   17   11   11
 -0.5816229567339105   17   17   12   12
 -0.5617969010963987   17   17   13   13
 -0.5544753405681709   17   17   14   14
 -0.5533898143103035   17   17   15   15
 -0.5480290988101439   17   17   16   16
 -0.5365452083227387   17   17   17   17
 -0.7514875567518086   18   18    1    1
 -0.7411659694436681   18   18    2    2
 -0.7384541792856969   18   18    3    3
 -0.7359989427018879   18   18    4    4
 -0.7282037120893885   18   18    5    5
 -0.657610249821979   18   18    6    6
 -0.6545457948988475   18   18    7    7
 -0.6544032530275766   18   18    8    8
 -0.600210280093207   18   18    9    9
 -0.5823918337420396   18   18   10   10
 -0.5763120444843228   18   18   11   11
 -0.5740018548803855   18   18   12   12
 -0.5544355833308603   18   18   13   13
 -0.5472099584218619   18   18   14   14
 -0.5461386559941926   18   18   15   15
 -0.5408481828363642   18   18   16   16
 -0.5295147676664578   18   18   17   17
 -0.5225764480375475   18   18   18   18
 -0.7498832108775003   19   19    1    1
 -0.7395836590586575   19   19    2    2
 -0.7368776582837743   19   19    3    3
 -0.7344276633685044   19   19    4    4
 -0.7266490747429015   19   19    5    5
 -0.6562063219967933   19   19    6    6
 -0.6531484093584523   19   19    7    7
 -0.653006171798891   19   19    8    8
 -0.5989288950883146   19   19    9    9
 -0.5811484892218277   19   19   10   10
 -0.5750816796664685   19   19   11   11
 -0.5727764220712208   19   19   12   12
 -0.5532519224269707   19   19   13   13
 -0.5460417234573748   19   19   14   14
 -0.5449727081462579   19   19   15   15
 -0.5396935295850034   19   19   16   16
 -0.5283843100490849   19   19   17   17
 -0.521460802993412   19   19   18   18
 -0.520347539732591   19   19   19   19
 -0.7356678851052116   20   20    1    1
 -0.7255635790023545   20   20    2    2
 -0.7229088751254376   20   20    3    3
 -0.7205053240768335   20   20    4    4
 -0.7128741919748035   20   20    5    5
 -0.6437668027413826   20   20    6    6
 -0.6407668580955327   20   20    7    7
 -0.6406273168935066   20   20    8    8
 -0.5875751679550528   20   20    9    9
 -0.5701318202572103   20   20   10   10
 -0.5641800175095474   20   20   11   11
 -0.5619184600361721   20   20   12   12
 -0.542764080857293   20   20   13   13
 -0.5356905636079291   20   20   14   14
 -0.5346418133203287   20   20   15   15
 -0.5294627106668551   20   20   16   16
 -0.5183678768347391   20   20   17   17
 -0.5115756167610701   20   20   18   18
 -0.5104834573197415   20   20   19   19
 -0.5008063655514478   20   20   20   20
 -0.7331281248124489   21   21    1    1
 -0.723058701998567   21   21    2    2
 -0.7204131630065556   21   21    3    3
 -0.7180179097831503   21   21    4    4
 -0.7104131227842488   21   21    5    5
 -0.6415443143107948   21   21    6    6
 -0.6385547264311519   21   21    7    7
 -0.6384156669698831   21   21    8    8
 -0.5855466709786323   21   21    9    9
 -0.5681635432832567   21   21   10   10
 -0.5622322880579131   21   21   11   11
 -0.5599785382026043   21   21   12   12
 -0.5408902860528589   21   21   13   13
 -0.533841188842216   21   21   14   14
 -0.5327960591752672   21   21   15   15
 -0.5276348364368174   21   21   16   16
 -0.5165783055114777   21   21   17   17
 -0.5098094944870095   21   21   18   18
 -0.5087211055285832   21   21   19   19
 -0.4990774221690567   21   21   20   20
 -0.4973544476509314   21   21   21   21
 -0.7322847122376137   22   22    1    1
 -0.7222268735896302   22   22    2    2
 -0.7195843781049915   22   22    3    3
 -0.7171918804527069   22   22    4    4
 -0.7095958422287697   22   22    5    5
 -0.6408062624973521   22   22    6    6
 -0.6378201139292371   22   22    7    7
 -0.6376812144461418   22   22    8    8
 -0.5848730405329546   22   22    9    9
 -0.5675099109088465   22   22   10   10
 -0.5615854791773403   22   22   11   11
 -0.559334322103435   22   22   12   12
 -0.5402680296512512   22   22   13   13
 -0.5332270419333797   22   22   14   14
 -0.5321831146149339   22   22   15   15
 -0.5270278295018622   22   22   16   16
 -0.5159840183411869   22   22   17   17
 -0.5092229943598582   22   22   18   18
 -0.5081358575167209   22   22   19   19
 -0.4985032685396601   22   22   20   20
 -0.4967822761830774   22   22   21   21
 -0.4962107629584344   22   22   22   22
 -0.7035195608972007   23   23    1    1
 -0.693856807993917   23   23    2    2
 -0.6913181133687825   23   23    3    3
 -0.6890195963170751   23   23    4    4
 -0.6817219409290042   23   23    5    5
 -0.6156345105645606   23   23    6    6
 -0.6127656620220386   23   23    7    7
 -0.6126322187018067   23   23    8    8
 -0.5618984225398387   23   23    9    9
 -0.5452173405442474   23   23   10   10
 -0.5395256286449522   23   23   11   11
 -0.5373629001191784   23   23   12   12
 -0.5190455578754616   23   23   13   13
 -0.5122811498456621   23   23   14   14
 -0.5112782294290424   23   23   15   15
 -0.5063254510104329   23   23   16   16
 -0.4957154559517503   23   23   17   17
 -0.489220014297608   23   23   18   18
 -0.4881755816858959   23   23   19   19
 -0.47892137406119   23   23   20   20
 -0.4772679846529762   23   23   21   21
 -0.476718921254371   23   23   22   22
 -0.4579927459190722   23   23   23   23
 -0.7015783788769592   24   24    1    1
 -0.6919422878651771   24   24    2    2
 -0.6894105981175686   24   24    3    3
 -0.6871184232348951   24   24    4    4
 -0.6798409038575575   24   24    5    5
 -0.6139358248287666   24   24    6    6
 -0.6110748921389361   24   24    7    7
 -0.6109418170213644   24   24    8    8
 -0.560348007774334   24   24    9    9
 -0.5437129529516143   24   24   10   10
 -0.538036945873361   24   24   11   11
 -0.5358801848429664   24   24   12   12
 -0.5176133846131444   24   24   13   13
 -0.5108676412345854   24   24   14   14
 -0.5098674881199552   24   24   15   15
 -0.5049283756247269   24   24   16   16
 -0.4943476561296356   24   24   17   17
 -0.4878701369829165   24   24   18   18
 -0.4868285862154628   24   24   19   19
 -0.477599913206212   24   24   20   20
 -0.4759510859025509   24   24   21   21
 -0.4754035375037504   24   24   22   22
 -0.4567290322525391   24   24   23   23
 -0.4554688054801658   24   24   24   24
 -0.6910620696617511   25   25    1    1
 -0.6815704188376328   25   25    2    2
 -0.6790766778538749   25   25    3    3
 -0.6768188615269486   25   25    4    4
 -0.6696504285274071   25   25    5    5
 -0.6047332336905848   25   25    6    6
 -0.6019151849517367   25   25    7    7
 -0.6017841045636598   25   25    8    8
 -0.5519486712279121   25   25    9    9
 -0.5355629675619479   25   25   10   10
 -0.5299720409926438   25   25   11   11
 -0.5278476087320372   25   25   12   12
 -0.5098546187069949   25   25   13   13
 -0.5032099906498186   25   25   14   14
 -0.50222482933045   25   25   15   15
 -0.4973597516627083   25   25   16   16
 -0.4869376318640727   25   25   17   17
 -0.4805572074915731   25   25   18   18
 -0.479531269049504   25   25   19   19
 -0.4704409292357069   25   25   20   20
 -0.4688168170291609   25   25   21   21
 -0.4682774761071662   25   25   22   22
 -0.4498828923552137   25   25   23   23
 -0.4486415557522336   25   25   24   24
 -0.4419166430851203   25   25   25   25
 -0.682599588766672   26   26    1    1
 -0.6732241690559198   26   26    2    2
 -0.6707609654672221   26   26    3    3
 -0.6685307974925495   26   26    4    4
 -0.6614501463724792   26   26    5    5
 -0.5973279025902528   26   26    6    6
 -0.5945443625947735   26   26    7    7
 -0.5944148873668242   26   26    8    8
 -0.5451897196222818   26   26    9    9
 -0.5290046689950433   26   26   10   10
 -0.523482206766868   26   26   11   11
 -0.521383789488428   26   26   12   12
 -0.5036111347140336   26   26   13   13
 -0.4970478742220261   26   26   14   14
 -0.4960747768100974   26   26   15   15
 -0.4912692750163963   26   26   16   16
 -0.4809747804971011   26   26   17   17
 -0.4746724883528415   26   26   18   18
 -0.4736591131592079   26   26   19   19
 -0.4646800901581563   26   26   20   20
 -0.4630758662064036   26   26   21   21
 -0.4625431298463559   26   26   22   22
 -0.4443737991077108   26   26   23   23
 -0.4431476634363811   26   26   24   24
 -0.4365051014689587   26   26   25   25
 -0.4311598275146326   26   26   26   26
 -0.6603575273786509   27   27    1    1
 -0.6512875995905085   27   27    2    2
 -0.6489046578805647   27   27    3    3
 -0.6467471584714971   27   27    4    4
 -0.6398972257395882   27   27    5    5
 -0.5778643633546151   27   27    6    6
 -0.5751715231903024   27   27    7    7
 -0.5750462668280185   27   27    8    8
 -0.5274250689961858   27   27    9    9
 -0.5117673976635491   27   27   10   10
 -0.5064248812570729   27   27   11   11
 -0.5043948395339259   27   27   12   12
 -0.4872012950974597   27   27   13   13
 -0.4808518941582135   27   27   14   14
 -0.4799105044893436   27   27   15   15
 -0.4752615868302578   27   27   16   16
 -0.4653025316854142   27   27   17   17
 -0.4592055956108983   27   27   18   18
 -0.4582252405855111   27   27   19   19
 -0.4495387931794062   27   27   20   20
 -0.4479868418164482   27   27   21   21
 -0.4474714643224455   27   27   22   22
 -0.4298941693487185   27   27   23   23
 -0.4287079865067203   27   27   24   24
 -0.4222818680787968   27   27   25   25
 -0.4171107663820935   27   27   26   26
 -0.4035194847227571   27   27   27   27
 -0.5403358207909765    1    1  0  0
 -0.525594863990027    2    2  0  0
 -0.521755789944566    3    3  0  0
 -0.5182920563034786    4    4  0  0
 -0.5073713600107213    5    5  0  0
 -0.4137683991451656    6    6  0  0
 -0.4099210739679001    7    7  0  0
 -0.4097425545882091    8    8  0  0
 -0.3446886878297293    9    9  0  0
 -0.3245269178157117   10   10  0  0
 -0.317786587842776   11   11  0  0
 -0.3152439520030281   12   12  0  0
 -0.2941185133943737   13   13  0  0
 -0.2865023287219987   14   14  0  0
 -0.2853816247280554   15   15  0  0
 -0.2798793917865005   16   16  0  0
 -0.2682726041613693   17   17  0  0
 -0.2612882240187738   18   18  0  0
 -0.2601737698662955   19   19  0  0
 -0.2504031827757239   20   20  0  0
 -0.2486772238254657   21   21  0  0
 -0.2481053814792172   22   22  0  0
 -0.2289963729595361   23   23  0  0
 -0.2277344027400829   24   24  0  0
 -0.2209583215425601   25   25  0  0
 -0.2155799137573163   26   26  0  0
 -0.2017597423613786   27   27  0  0
 -5078.616656081689  0  0  0  0
