 &FCI NORB=  51,NELEC=74,MS2=0,
  ORBSYM=1,1,1,1,1,1,1,1,1,1,1,1,1,1,1,1,1,1,1,1,1,1,1,1,1,1,1,1,1,1,1,1,1,1,1,1,1,1,1,1,1,1,1,1,1,1,1,1,1,1,1,
  ISYM=1,
 &END
 -0.7896192498855464    1    1    1    1
 -0.7875215655804536    2    2    1    1
 -0.7854294539351515    2    2    2    2
 -0.7840039520096983    3    3    1    1
 -0.7819211851755564    3    3    2    2
 -0.7784285867599088    3    3    3    3
 -0.7816735773055912    4    4    1    1
 -0.7795970012911926    4    4    2    2
 -0.7761147842811216    4    4    3    3
 -0.7738078593528275    4    4    4    4
 -0.7768617574414806    5    5    1    1
 -0.7747979643968607    5    5    2    2
 -0.7713371831900029    5    5    3    3
 -0.7690444592114625    5    5    4    4
 -0.7643103815700339    5    5    5    5
 -0.7002669372646977    6    6    1    1
 -0.6984066242544861    6    6    2    2
 -0.6952870593730186    6    6    3    3
 -0.6932203869141585    6    6    4    4
 -0.6889530664816863    6    6    5    5
 -0.6210256189893529    6    6    6    6
 -0.6908721739975539    7    7    1    1
 -0.6890368188989667    7    7    2    2
 -0.6859591060199262    7    7    3    3
 -0.6839201599857601    7    7    4    4
 -0.6797100898147447    7    7    5    5
 -0.6126939552154983    7    7    6    6
 -0.6044740688291105    7    7    7    7
 -0.6907262149500807    8    8    1    1
 -0.6888912476029359    8    8    2    2
 -0.6858141849455386    8    8    3    3
 -0.6837756696750249    8    8    4    4
 -0.6795664889562919    8    8    5    5
 -0.6125645127086763    8    8    6    6
 -0.6043463629196396    8    8    7    7
 -0.6042186839903158    8    8    8    8
 -0.6497283247991784    9    9    1    1
 -0.6480022715023483    9    9    2    2
 -0.6451078471668866    9    9    3    3
 -0.643190327485251    9    9    4    4
 -0.6392309816866308    9    9    5    5
 -0.5762058917980941    9    9    6    6
 -0.5684755283345249    9    9    7    7
 -0.5683554277576737    9    9    8    8
 -0.5346208265661405    9    9    9    9
 -0.6469049766826103   10   10    1    1
 -0.6451864238273319   10   10    2    2
 -0.6423045770064777   10   10    3    3
 -0.6403953897699196   10   10    4    4
 -0.6364532490262074   10   10    5    5
 -0.5737020301727502   10   10    6    6
 -0.5660052584525177   10   10    7    7
 -0.5658856797641614   10   10    8    8
 -0.5322976698771812   10   10    9    9
 -0.5299846082999967   10   10   10   10
 -0.6350001376877241   11   11    1    1
 -0.6333132109534121   11   11    2    2
 -0.6304843980767179   11   11    3    3
 -0.6286103451604719   11   11    4    4
 -0.6247407506987341   11   11    5    5
 -0.5631443276562694   11   11    6    6
 -0.5555891978021726   11   11    7    7
 -0.5554718196920827   11   11    8    8
 -0.5225019219920168   11   11    9    9
 -0.5202314271389329   11   11   10   10
 -0.5106577314596563   11   11   11   11
 -0.6327989779739042   12   12    1    1
 -0.6311178987897694   12   12    2    2
 -0.6282988916888106   12   12    3    3
 -0.6264313349755353   12   12    4    4
 -0.6225751540470118   12   12    5    5
 -0.5611922483833154   12   12    6    6
 -0.5536633075746699   12   12    7    7
 -0.5535463363431802   12   12    8    8
 -0.5206907252491778   12   12    9    9
 -0.5184281008224204   12   12   10   10
 -0.5088875913300293   12   12   11   11
 -0.507123587200869   12   12   12   12
 -0.6285399634838612   13   13    1    1
 -0.6268701986994859   13   13    2    2
 -0.6240701647519429   13   13    3    3
 -0.6222151775139348   13   13    4    4
 -0.6183849503733005   13   13    5    5
 -0.5574151785700596   13   13    6    6
 -0.5499369108331396   13   13    7    7
 -0.5498207268693086   13   13    8    8
 -0.5171862484392316   13   13    9    9
 -0.5149388524666192   13   13   10   10
 -0.5054625547849054   13   13   11   11
 -0.5037104231767321   13   13   12   12
 -0.5003202312425349   13   13   13   13
 -0.6191124902155798   14   14    1    1
 -0.6174677702394642   14   14    2    2
 -0.6147097340115959   14   14    3    3
 -0.6128825697341239   14   14    4    4
 -0.609109792184729   14   14    5    5
 -0.5490545062173008   14   14    6    6
 -0.541688405046198   14   14    7    7
 -0.5415739637260761   14   14    8    8
 -0.5094289699602972   14   14    9    9
 -0.5072152826883021   14   14   10   10
 -0.4978811200310367   14   14   11   11
 -0.496155268651422   14   14   12   12
 -0.4928159262187534   14   14   13   13
 -0.4854241782941524   14   14   14   14
 -0.6088285024920768   15   15    1    1
 -0.6072111027207872   15   15    2    2
 -0.6044988798324277   15   15    3    3
 -0.6027020663155933   15   15    4    4
 -0.5989919578265303   15   15    5    5
 -0.5399342414985151   15   15    6    6
 -0.5326904975649271   15   15    7    7
 -0.5325779572129649   15   15    8    8
 -0.5009669192734435   15   15    9    9
 -0.4987900032394522   15   15   10   10
 -0.4896108890034246   15   15   11   11
 -0.4879137054906048   15   15   12   12
 -0.4846298323904483   15   15   13   13
 -0.4773608677178623   15   15   14   14
 -0.4694314956233309   15   15   15   15
 -0.6085468509598679   16   16    1    1
 -0.606930199417549   16   16    2    2
 -0.6042192312367616   16   16    3    3
 -0.6024232489478972   16   16    4    4
 -0.5987148568005236   16   16    5    5
 -0.5396844612963931   16   16    6    6
 -0.5324440684075895   16   16    7    7
 -0.5323315801181744   16   16    8    8
 -0.5007351658324961   16   16    9    9
 -0.4985592568665609   16   16   10   10
 -0.4893843890013558   16   16   11   11
 -0.4876879906264441   16   16   12   12
 -0.4844056366862586   16   16   13   13
 -0.4771400347258802   16   16   14   14
 -0.4692143308561293   16   16   15   15
 -0.4689972665520124   16   16   16   16
 -0.6080419978766982   17   17    1    1
 -0.6064266875154474   17   17    2    2
 -0.6037179683655149   17   17    3    3
 -0.6019234760312766   17   17    4    4
 -0.5982181603819677   17   17    5    5
 -0.5392367367476677   17   17    6    6
 -0.5320023505199248   17   17    7    7
 -0.531889955551278   17   17    8    8
 -0.5003197537866968   17   17    9    9
 -0.498145649964192   17   17   10   10
 -0.4889783936088027   17   17   11   11
 -0.4872834025732741   17   17   12   12
 -0.4840037716880254   17   17   13   13
 -0.4767441973022619   17   17   14   14
 -0.4688250686305069   17   17   15   15
 -0.4686081844038697   17   17   16   16
 -0.4682194250399495   17   17   17   17
 -0.6033196813876486   18   18    1    1
 -0.6017169162235725   18   18    2    2
 -0.5990292341552077   18   18    3    3
 -0.5972486786226526   18   18    4    4
 -0.5935721400532971   18   18    5    5
 -0.5350487916018767   18   18    6    6
 -0.5278705907387808   18   18    7    7
 -0.5277590686779522   18   18    8    8
 -0.4964340547209173   18   18    9    9
 -0.4942768359266931   18   18   10   10
 -0.4851807764392793   18   18   11   11
 -0.4834989494354193   18   18   12   12
 -0.4802447895785888   18   18   13   13
 -0.4730415961795747   18   18   14   14
 -0.4651839708777122   18   18   15   15
 -0.4649687710675516   18   18   16   16
 -0.4645830309765778   18   18   17   17
 -0.4609748787183875   18   18   18   18
 -0.5966422611052821   19   19    1    1
 -0.5950572350220692   19   19    2    2
 -0.592399299675566   19   19    3    3
 -0.590638450971735   19   19    4    4
 -0.5870026035881126   19   19    5    5
 -0.5291269797278124   19   19    6    6
 -0.5220282257409131   19   19    7    7
 -0.5219179379837114   19   19    8    8
 -0.4909396229493124   19   19    9    9
 -0.488806279816656   19   19   10   10
 -0.4798108936770289   19   19   11   11
 -0.4781476807944937   19   19   12   12
 -0.4749295373211833   19   19   13   13
 -0.4678060674107014   19   19   14   14
 -0.4600354087173891   19   19   15   15
 -0.4598225906952282   19   19   16   16
 -0.4594411198976102   19   19   17   17
 -0.4558729019392845   19   19   18   18
 -0.4508273928078912   19   19   19   19
 -0.5950442017697439   20   20    1    1
 -0.5934634210541397   20   20    2    2
 -0.59081260477826   20   20    3    3
 -0.5890564723690884   20   20    4    4
 -0.585430363316511   20   20    5    5
 -0.5277097547594155   20   20    6    6
 -0.5206300142263377   20   20    7    7
 -0.5205200218662129   20   20    8    8
 -0.4896246798103762   20   20    9    9
 -0.4874970506693884   20   20   10   10
 -0.4785257579635226   20   20   11   11
 -0.4768669998657843   20   20   12   12
 -0.4736574759364719   20   20   13   13
 -0.4665530856794673   20   20   14   14
 -0.4588032400838481   20   20   15   15
 -0.4585909920780089   20   20   16   16
 -0.4582105430198974   20   20   17   17
 -0.4546518822525238   20   20   18   18
 -0.4496198871202144   20   20   19   19
 -0.448415615641481   20   20   20   20
 -0.5938567748735196   21   21    1    1
 -0.5922791486488478   21   21    2    2
 -0.5896336221489772   21   21    3    3
 -0.5878809941498138   21   21    4    4
 -0.5842621210965198   21   21    5    5
 -0.5266566955844204   21   21    6    6
 -0.5195910828662214   21   21    7    7
 -0.5194813099988443   21   21    8    8
 -0.488647620438765   21   21    9    9
 -0.4865242370396224   21   21   10   10
 -0.4775708467924668   21   21   11   11
 -0.4759153987916484   21   21   12   12
 -0.4727122795546704   21   21   13   13
 -0.4656220663017395   21   21   14   14
 -0.4578876857338854   21   21   15   15
 -0.4576758612747173   21   21   16   16
 -0.4572961714130535   21   21   17   17
 -0.4537446120500749   21   21   18   18
 -0.4487226584009764   21   21   19   19
 -0.447520790078748   21   21   20   20
 -0.4466277501647742   21   21   21   21
 -0.5893074771080415   22   22    1    1
 -0.5877419364429899   22   22    2    2
 -0.5851166762569909   22   22    3    3
 -0.5833774744356159   22   22    4    4
 -0.5797863241124338   22   22    5    5
 -0.5226221905829298   22   22    6    6
 -0.5156107046803379   22   22    7    7
 -0.5155017727387217   22   22    8    8
 -0.4849042876659061   22   22    9    9
 -0.4827971706524675   22   22   10   10
 -0.4739123687248667   22   22   11   11
 -0.4722696024449778   22   22   12   12
 -0.4690910210154374   22   22   13   13
 -0.4620551230329102   22   22   14   14
 -0.4543799924420259   22   22   15   15
 -0.4541697906847946   22   22   16   16
 -0.4537930094743617   22   22   17   17
 -0.4502686571784028   22   22   18   18
 -0.4452851746952163   22   22   19   19
 -0.4440925134025345   22   22   20   20
 -0.4432063147079541   22   22   21   21
 -0.4398110894912743   22   22   22   22
 -0.5884430804935489   23   23    1    1
 -0.5868798361646261   23   23    2    2
 -0.5842584267120814   23   23    3    3
 -0.5825217759531394   23   23    4    4
 -0.578935893131732   23   23    5    5
 -0.5218556079927759   23   23    6    6
 -0.514854406542549   23   23    7    7
 -0.5147456343823801   23   23    8    8
 -0.4841930297218048   23   23    9    9
 -0.482089003429057   23   23   10   10
 -0.4732172337350609   23   23   11   11
 -0.4715768770658861   23   23   12   12
 -0.4684029579817822   23   23   13   13
 -0.4613773802592759   23   23   14   14
 -0.453713507555244   23   23   15   15
 -0.4535036141220954   23   23   16   16
 -0.4531273855746023   23   23   17   17
 -0.4496082028010255   23   23   18   18
 -0.4446320300933878   23   23   19   19
 -0.4434411181971138   23   23   20   20
 -0.4425562193793908   23   23   21   21
 -0.4391659742814041   23   23   22   22
 -0.4385218053269694   23   23   23   23
 -0.5880706238342768   24   24    1    1
 -0.586508368965133   24   24    2    2
 -0.5838886187408802   24   24    3    3
 -0.5821530671997919   24   24    4    4
 -0.5785694540727362   24   24    5    5
 -0.5215252980565753   24   24    6    6
 -0.5145285280359795   24   24    7    7
 -0.5144198247234473   24   24    8    8
 -0.4838865584176614   24   24    9    9
 -0.4817838638741175   24   24   10   10
 -0.4729177095910449   24   24   11   11
 -0.4712783911901161   24   24   12   12
 -0.4681064810467883   24   24   13   13
 -0.4610853501829412   24   24   14   14
 -0.4534263283481252   24   24   15   15
 -0.4532165677675999   24   24   16   16
 -0.4528405773549963   24   24   17   17
 -0.4493236220577934   24   24   18   18
 -0.4443505990322985   24   24   19   19
 -0.4431604409269706   24   24   20   20
 -0.4422761022083775   24   24   21   21
 -0.43888800297531   24   24   22   22
 -0.4382442417493791   24   24   23   23
 -0.4379668538564154   24   24   24   24
 -0.587346114237699   25   25    1    1
 -0.5857857840840558   25   25    2    2
 -0.5831692614214276   25   25    3    3
 -0.5814358480992808   25   25    4    4
 -0.5778566500237442   25   25    5    5
 -0.5208827730468472   25   25    6    6
 -0.5138946231252998   25   25    7    7
 -0.5137860537364664   25   25    8    8
 -0.4832904047568261   25   25    9    9
 -0.4811903007565158   25   25   10   10
 -0.4723350696748453   25   25   11   11
 -0.4706977709325513   25   25   12   12
 -0.4675297686180543   25   25   13   13
 -0.4605172878660875   25   25   14   14
 -0.4528677020319741   25   25   15   15
 -0.4526581998788339   25   25   16   16
 -0.4522826726906308   25   25   17   17
 -0.4487700503217537   25   25   18   18
 -0.4438031541163377   25   25   19   19
 -0.4426144622991288   25   25   20   20
 -0.441731213095744   25   25   21   21
 -0.4383472880388876   25   25   22   22
 -0.4377043199339989   25   25   23   23
 -0.4374272737860269   25   25   24   24
 -0.4368883584843299   25   25   25   25
 -0.5871810764517492   26   26    1    1
 -0.5856211847336852   26   26    2    2
 -0.5830053972850929   26   26    3    3
 -0.5812724710329887   26   26    4    4
 -0.577694278672671   26   26    5    5
 -0.5207364107273915   26   26    6    6
 -0.5137502243989674   26   26    7    7
 -0.5136416855169359   26   26    8    8
 -0.4831546054786178   26   26    9    9
 -0.4810550915843899   26   26   10   10
 -0.4722023487250748   26   26   11   11
 -0.4705655100456855   26   26   12   12
 -0.4673983979049297   26   26   13   13
 -0.4603878875827814   26   26   14   14
 -0.4527404511979943   26   26   15   15
 -0.4525310079126507   26   26   16   16
 -0.4521555862434493   26   26   17   17
 -0.4486439508827512   26   26   18   18
 -0.4436784503204371   26   26   19   19
 -0.4424900925125301   26   26   20   20
 -0.4416070914924388   26   26   21   21
 -0.4382241172812348   26   26   22   22
 -0.4375813298432986   26   26   23   23
 -0.4373043615422412   26   26   24   24
 -0.4367655976698055   26   26   25   25
 -0.4366428713497173   26   26   26   26
 -0.5859788722439452   27   27    1    1
 -0.5844221742738789   27   27    2    2
 -0.5818117424315954   27   27    3    3
 -0.580082364201244   27   27    4    4
 -0.5765114978909037   27   27    5    5
 -0.5196702464226489   27   27    6    6
 -0.5126983637271881   27   27    7    7
 -0.5125900470694514   27   27    8    8
 -0.4821653867809781   27   27    9    9
 -0.4800701714660799   27   27   10   10
 -0.4712355538583148   27   27   11   11
 -0.4696020664693992   27   27   12   12
 -0.4664414387262081   27   27   13   13
 -0.4594452818383685   27   27   14   14
 -0.4518135029408019   27   27   15   15
 -0.4516044884730905   27   27   16   16
 -0.4512298354483985   27   27   17   17
 -0.4477253898677805   27   27   18   18
 -0.4427700557531081   27   27   19   19
 -0.4415841310085513   27   27   20   20
 -0.440702937859293   27   27   21   21
 -0.4373268900052125   27   27   22   22
 -0.4366854186208645   27   27   23   23
 -0.4364090173892688   27   27   24   24
 -0.43587135659086   27   27   25   25
 -0.4357488815426609   27   27   26   26
 -0.4348567221050612   27   27   27   27
 -0.582148989905185   28   28    1    1
 -0.580602466312293   28   28    2    2
 -0.5780090959158787   28   28    3    3
 -0.5762910206786132   28   28    4    4
 -0.5727434930899638   28   28    5    5
 -0.5162737487108258   28   28    6    6
 -0.5093474333415401   28   28    7    7
 -0.5092398246275094   28   28    8    8
 -0.4790140159949933   28   28    9    9
 -0.4769324947371857   28   28   10   10
 -0.4681556190507565   28   28   11   11
 -0.4665328079247537   28   28   12   12
 -0.4633928376368847   28   28   13   13
 -0.4564424067282111   28   28   14   14
 -0.4488605081532936   28   28   15   15
 -0.4486528597771878   28   28   16   16
 -0.4482806554363485   28   28   17   17
 -0.4447991144600978   28   28   18   18
 -0.4398761677701387   28   28   19   19
 -0.4386979940767706   28   28   20   20
 -0.4378225602922937   28   28   21   21
 -0.4344685778515985   28   28   22   22
 -0.4338312990414918   28   28   23   23
 -0.4335567043327   28   28   24   24
 -0.4330225576159306   28   28   25   25
 -0.4329008830488518   28   28   26   26
 -0.4320145546502796   28   28   27   27
 -0.429190963235445   28   28   28   28
 -0.5811374038675376   29   29    1    1
 -0.5795935676308045   29   29    2    2
 -0.5770047036705929   29   29    3    3
 -0.575289613890576   29   29    4    4
 -0.5717482507537063   29   29    5    5
 -0.5153766324659195   29   29    6    6
 -0.5084623527851627   29   29    7    7
 -0.5083549310601582   29   29    8    8
 -0.4781816450747983   29   29    9    9
 -0.4761037408254851   29   29   10   10
 -0.467342116500911   29   29   11   11
 -0.4657221252940444   29   29   12   12
 -0.4625876112556182   29   29   13   13
 -0.4556492579404555   29   29   14   14
 -0.4480805342449423   29   29   15   15
 -0.4478732466943324   29   29   16   16
 -0.4475016891238573   29   29   17   17
 -0.4440261979360667   29   29   18   18
 -0.439111805729963   29   29   19   19
 -0.4379356793201578   29   29   20   20
 -0.4370617667555208   29   29   21   21
 -0.4337136124479433   29   29   22   22
 -0.4330774410216123   29   29   23   23
 -0.4328033234693187   29   29   24   24
 -0.4322701049262129   29   29   25   25
 -0.4321486417900484   29   29   26   26
 -0.4312638535426201   29   29   27   27
 -0.4284451686134117   29   29   28   28
 -0.4277006699404218   29   29   29   29
 -0.577989487068519   30   30    1    1
 -0.576454013515021   30   30    2    2
 -0.5738791729652739   30   30    3    3
 -0.572173373518136   30   30    4    4
 -0.5686511933084634   30   30    5    5
 -0.5125849299384896   30   30    6    6
 -0.5057081036672283   30   30    7    7
 -0.505601263826388   30   30    8    8
 -0.4755914211045367   30   30    9    9
 -0.4735247724888304   30   30   10   10
 -0.4648106083074418   30   30   11   11
 -0.4631993923015869   30   30   12   12
 -0.4600818573619636   30   30   13   13
 -0.4531810878588443   30   30   14   14
 -0.4456533625783524   30   30   15   15
 -0.4454471978671235   30   30   16   16
 -0.445077652957183   30   30   17   17
 -0.4416209878800884   30   30   18   18
 -0.4367332160527104   30   30   19   19
 -0.4355634605081404   30   30   20   20
 -0.4346942817706926   30   30   21   21
 -0.4313642638128328   30   30   22   22
 -0.4307315384127026   30   30   23   23
 -0.4304589057058896   30   30   24   24
 -0.4299285755117323   30   30   25   25
 -0.4298077703195312   30   30   26   26
 -0.4289277748109098   30   30   27   27
 -0.4261243581910216   30   30   28   28
 -0.4253838923334451   30   30   29   29
 -0.4230796642940922   30   30   30   30
 -0.5777903705788753   31   31    1    1
 -0.5762554259936556   31   31    2    2
 -0.5736814724725191   31   31    3    3
 -0.571976260670668   31   31    4    4
 -0.5684552938466625   31   31    5    5
 -0.5124083452182183   31   31    6    6
 -0.5055338880030344   31   31    7    7
 -0.5054270849683553   31   31    8    8
 -0.4754275805911818   31   31    9    9
 -0.473361643932746   31   31   10   10
 -0.4646504817675201   31   31   11   11
 -0.463039820823102   31   31   12   12
 -0.4599233598694722   31   31   13   13
 -0.4530249676708369   31   31   14   14
 -0.4454998356801304   31   31   15   15
 -0.4452937419923275   31   31   16   16
 -0.4449243243900404   31   31   17   17
 -0.4414688501287503   31   31   18   18
 -0.4365827621312519   31   31   19   19
 -0.4354134095656685   31   31   20   20
 -0.4345445302589594   31   31   21   21
 -0.4312156594871662   31   31   22   22
 -0.4305831520599635   31   31   23   23
 -0.4303106132746988   31   31   24   24
 -0.429780465778478   31   31   25   25
 -0.4296597022034799   31   31   26   26
 -0.4287800098519583   31   31   27   27
 -0.4259775590047855   31   31   28   28
 -0.4252373482365583   31   31   29   29
 -0.4229339140002223   31   31   30   30
 -0.4227882139171046   31   31   31   31
 -0.5750336551418647   32   32    1    1
 -0.5735060339833556   32   32    2    2
 -0.5709443611400691   32   32    3    3
 -0.5692472851326806   32   32    4    4
 -0.5657431173141469   32   32    5    5
 -0.5099635762029423   32   32    6    6
 -0.5031219179461544   32   32    7    7
 -0.5030156244830938   32   32    8    8
 -0.4731592517692888   32   32    9    9
 -0.4711031719720404   32   32   10   10
 -0.4624335719311384   32   32   11   11
 -0.460830595666347   32   32   12   12
 -0.4577290037663692   32   32   13   13
 -0.4508635247231494   32   32   14   14
 -0.4433742961475579   32   32   15   15
 -0.4431691857604115   32   32   16   16
 -0.4428015306991059   32   32   17   17
 -0.4393625429694773   32   32   18   18
 -0.4344997671538621   32   32   19   19
 -0.4333359937263763   32   32   20   20
 -0.4324712599595025   32   32   21   21
 -0.4291582716771236   32   32   22   22
 -0.4285287820277818   32   32   23   23
 -0.428257543561655   32   32   24   24
 -0.4277299254703207   32   32   25   25
 -0.4276097380745537   32   32   26   26
 -0.4267342428533561   32   32   27   27
 -0.4239451628754556   32   32   28   28
 -0.4232084837521907   32   32   29   29
 -0.4209160395098745   32   32   30   30
 -0.4207710345814162   32   32   31   31
 -0.4187634794791819   32   32   32   32
 -0.5713229691876823   33   33    1    1
 -0.5698052057519787   33   33    2    2
 -0.5672600633558299   33   33    3    3
 -0.5655739385615531   33   33    4    4
 -0.5620923831000337   33   33    5    5
 -0.5066727867640284   33   33    6    6
 -0.4998752776539377   33   33    7    7
 -0.4997696701014442   33   33    8    8
 -0.4701059602376852   33   33    9    9
 -0.4680631483011196   33   33   10   10
 -0.4594494930954676   33   33   11   11
 -0.457856860819167   33   33   12   12
 -0.4547752834581574   33   33   13   13
 -0.4479541072769122   33   33   14   14
 -0.4405132066122779   33   33   15   15
 -0.4403094198002401   33   33   16   16
 -0.4399441372130667   33   33   17   17
 -0.4365273412340441   33   33   18   18
 -0.431695944858147   33   33   19   19
 -0.4305396812479955   33   33   20   20
 -0.429680527598762   33   33   21   21
 -0.4263889179939194   33   33   22   22
 -0.4257634904344731   33   33   23   23
 -0.4254940022672332   33   33   24   24
 -0.4249697888897329   33   33   25   25
 -0.4248503770619301   33   33   26   26
 -0.4239805314019212   33   33   27   27
 -0.4212094493269374   33   33   28   28
 -0.4204775239860833   33   33   29   29
 -0.4181998728616562   33   33   30   30
 -0.4180558036484323   33   33   31   31
 -0.4160612032775488   33   33   32   32
 -0.4133763648350035   33   33   33   33
 -0.5709837489370442   34   34    1    1
 -0.5694668866660422   34   34    2    2
 -0.5669232554358856   34   34    3    3
 -0.565238131770053   34   34    4    4
 -0.5617586434652557   34   34    5    5
 -0.506371952246624   34   34    6    6
 -0.4995784791247019   34   34    7    7
 -0.4994729342761821   34   34    8    8
 -0.4698268370967321   34   34    9    9
 -0.467785238069877   34   34   10   10
 -0.4591766971803567   34   34   11   11
 -0.4575850105217699   34   34   12   12
 -0.4545052628324191   34   34   13   13
 -0.4476881366915514   34   34   14   14
 -0.4402516540257104   34   34   15   15
 -0.440047988211107   34   34   16   16
 -0.4396829225087037   34   34   17   17
 -0.4362681552357736   34   34   18   18
 -0.4314396274781151   34   34   19   19
 -0.4302840503938916   34   34   20   20
 -0.4294254068629834   34   34   21   21
 -0.426135751635429   34   34   22   22
 -0.4255106954205722   34   34   23   23
 -0.4252413672606285   34   34   24   24
 -0.4247174651322866   34   34   25   25
 -0.4245981242046794   34   34   26   26
 -0.4237287950113253   34   34   27   27
 -0.4209593582529255   34   34   28   28
 -0.4202278674892037   34   34   29   29
 -0.4179515687091194   34   34   30   30
 -0.4178075850362942   34   34   31   31
 -0.4158141689497372   34   34   32   32
 -0.413130924617036   34   34   33   33
 -0.4128856301280115   34   34   34   34
 -0.5690762125461386   35   35    1    1
 -0.5675644177923598   35   35    2    2
 -0.5650292842981642   35   35    3    3
 -0.56334979027542   35   35    4    4
 -0.559881926207872   35   35    5    5
 -0.5046802702538483   35   35    6    6
 -0.4979094926941464   35   35    7    7
 -0.4978043004487256   35   35    8    8
 -0.4682572446331033   35   35    9    9
 -0.4662224661584033   35   35   10   10
 -0.4576426845900545   35   35   11   11
 -0.4560563154212033   35   35   12   12
 -0.4529868565199365   35   35   13   13
 -0.4461925049610413   35   35   14   14
 -0.4387808660168155   35   35   15   15
 -0.4385778806067835   35   35   16   16
 -0.4382140345119674   35   35   17   17
 -0.4348106752569568   35   35   18   18
 -0.429998278593098   35   35   19   19
 -0.4288465620484166   35   35   20   20
 -0.4279907870646169   35   35   21   21
 -0.4247121218820012   35   35   22   22
 -0.4240891538482501   35   35   23   23
 -0.4238207254569376   35   35   24   24
 -0.4232985735752129   35   35   25   25
 -0.423179631340498   35   35   26   26
 -0.4223132063927991   35   35   27   27
 -0.4195530217390499   35   35   28   28
 -0.4188239747318342   35   35   29   29
 -0.4165552805863261   35   35   30   30
 -0.4164117779326125   35   35   31   31
 -0.4144250214291599   35   35   32   32
 -0.4117507412503771   35   35   33   33
 -0.4115062662385532   35   35   34   34
 -0.4101315105131985   35   35   35   35
 -0.5618932501146223   36   36    1    1
 -0.5604005374533316   36   36    2    2
 -0.5578974027815192   36   36    3    3
 -0.5562391075757407   36   36    4    4
 -0.5528150153910542   36   36    5    5
 -0.4983101227389108   36   36    6    6
 -0.4916248069148626   36   36    7    7
 -0.4915209424212093   36   36    8    8
 -0.4623468338263747   36   36    9    9
 -0.4603377386204848   36   36   10   10
 -0.4518662522985676   36   36   11   11
 -0.4502999065112797   36   36   12   12
 -0.4472691907651243   36   36   13   13
 -0.4405605984963172   36   36   14   14
 -0.4332425103330214   36   36   15   15
 -0.4330420870342537   36   36   16   16
 -0.432682833457579   36   36   17   17
 -0.4293224318963371   36   36   18   18
 -0.4245707780006348   36   36   19   19
 -0.4234335985890998   36   36   20   20
 -0.422588625321174   36   36   21   21
 -0.4193513439256732   36   36   22   22
 -0.4187362390847315   36   36   23   23
 -0.4184711988354777   36   36   24   24
 -0.4179556376304802   36   36   25   25
 -0.4178381967018902   36   36   26   26
 -0.4169827078954529   36   36   27   27
 -0.4142573626924396   36   36   28   28
 -0.4135375178222105   36   36   29   29
 -0.411297459463011   36   36   30   30
 -0.4111557681205905   36   36   31   31
 -0.409194088745667   36   36   32   32
 -0.4065535637188867   36   36   33   33
 -0.4063121745060942   36   36   34   34
 -0.4049547711467495   36   36   35   35
 -0.3998433733348536   36   36   36   36
 -0.5618003700714241   37   37    1    1
 -0.560307904153116   37   37    2    2
 -0.5578051832454063   37   37    3    3
 -0.5561471621531365   37   37    4    4
 -0.5527236359653364   37   37    5    5
 -0.498227752883575   37   37    6    6
 -0.491543542131393   37   37    7    7
 -0.4914396948063721   37   37    8    8
 -0.4622704086443857   37   37    9    9
 -0.4602616455386758   37   37   10   10
 -0.4517915595397121   37   37   11   11
 -0.4502254726668432   37   37   12   12
 -0.4471952578930866   37   37   13   13
 -0.4404877745437045   37   37   14   14
 -0.4331708960485166   37   37   15   15
 -0.4329705058793951   37   37   16   16
 -0.4326113116867542   37   37   17   17
 -0.4292514655944419   37   37   18   18
 -0.4245005971394243   37   37   19   19
 -0.4233636057018021   37   37   20   20
 -0.4225187721065875   37   37   21   21
 -0.4192820258284526   37   37   22   22
 -0.4186670226633437   37   37   23   23
 -0.4184020262248134   37   37   24   24
 -0.4178865502412471   37   37   25   25
 -0.4177691287254522   37   37   26   26
 -0.4169137813299276   37   37   27   27
 -0.4141888866220575   37   37   28   28
 -0.4134691607410183   37   37   29   29
 -0.4112294726598336   37   37   30   30
 -0.4110878047387622   37   37   31   31
 -0.4091264496262588   37   37   32   32
 -0.4064863610739842   37   37   33   33
 -0.4062450117624371   37   37   34   34
 -0.4048878327796668   37   37   35   35
 -0.3997772798735417   37   37   36   36
 -0.3997111973373717   37   37   37   37
 -0.5579019994053023   38   38    1    1
 -0.5564198898086808   38   38    2    2
 -0.5539345354501795   38   38    3    3
 -0.5522880194781166   38   38    4    4
 -0.5488882493694793   38   38    5    5
 -0.4947705168966314   38   38    6    6
 -0.4881326883337656   38   38    7    7
 -0.4880295616123383   38   38    8    8
 -0.4590626830947455   38   38    9    9
 -0.4570678589317343   38   38   10   10
 -0.4486565474308964   38   38   11   11
 -0.4471013277404842   38   38   12   12
 -0.4440921398314564   38   38   13   13
 -0.4374312001615122   38   38   14   14
 -0.4301650939797879   38   38   15   15
 -0.429966094331568   38   38   16   16
 -0.4296093926116604   38   38   17   17
 -0.4262728607180328   38   38   18   18
 -0.4215549588597109   38   38   19   19
 -0.4204258570823742   38   38   20   20
 -0.4195868858444678   38   38   21   21
 -0.4163725995671029   38   38   22   22
 -0.415761863950444   38   38   23   23
 -0.4154987063400769   38   38   24   24
 -0.4149868072791337   38   38   25   25
 -0.414870200559158   38   38   26   26