 &FCI NORB=  33,NELEC=45,MS2=1,
  ORBSYM=1,1,1,1,1,1,1,1,1,1,1,1,1,1,1,1,1,1,1,1,1,1,1,1,1,1,1,1,1,1,1,1,1,
  ISYM=1,
 &END
 -0.3729123122237312    1    1    1    1
 -0.3949413877733163    2    2    1    1
 -0.4182717884700266    2    2    2    2
 -0.3961635655725883    3    3    1    1
 -0.4195661640653827    3    3    2    2
 -0.4208645452098292    3    3    3    3
 -0.3963317283545404    4    4    1    1
 -0.4197442607393164    4    4    2    2
 -0.421043193018204    4    4    3    3
 -0.4212219166586721    4    4    4    4
 -0.3985568808945416    5    5    1    1
 -0.4221008598736141    5    5    2    2
 -0.423407084837525    5    5    3    3
 -0.4235868118984465    5    5    4    4
 -0.4259649845325679    5    5    5    5
 -0.3990221361210322    6    6    1    1
 -0.4225935991551982    6    6    2    2
 -0.4239013489403343    6    6    3    3
 -0.4240812858055734    6    6    4    4
 -0.4264622345986336    6    6    5    5
 -0.4269600651293788    6    6    6    6
 -0.3996140677100239    7    7    1    1
 -0.4232204979610574    7    7    2    2
 -0.4245301877348264    7    7    3    3
 -0.4247103915284008    7    7    4    4
 -0.4270948723530824    7    7    5    5
 -0.4275934413932746    7    7    6    6
 -0.428227757242683    7    7    7    7
 -0.4084242536740457    8    8    1    1
 -0.4325511286673029    8    8    2    2
 -0.4338896928261209    8    8    3    3
 -0.4340738695252087    8    8    4    4
 -0.4365109203697934    8    8    5    5
 -0.4370204812301314    8    8    6    6
 -0.437668781673789    8    8    7    7
 -0.4473179498807275    8    8    8    8
 -0.4087665536796132    9    9    1    1
 -0.4329136493854511    9    9    2    2
 -0.434253335393706    9    9    3    3
 -0.4344376664511223    9    9    4    4
 -0.4368767597858631    9    9    5    5
 -0.4373867477087073    9    9    6    6
 -0.438035591492393    9    9    7    7
 -0.4476928466586667    9    9    8    8
 -0.4480680576372637    9    9    9    9
 -0.4091104446564601   10   10    1    1
 -0.4332778550584383   10   10    2    2
 -0.434618668130358   10   10    3    3
 -0.4348031542635427   10   10    4    4
 -0.4372442995817004   10   10    5    5
 -0.4377547165519883   10   10    6    6
 -0.4384041062010846   10   10    7    7
 -0.4480694859139555   10   10    8    8
 -0.448445012553579   10   10    9    9
 -0.4488222845980773   10   10   10   10
 -0.4179316510986577   11   11    1    1
 -0.4426201572563508   11   11    2    2
 -0.4439898808316867   11   11    3    3
 -0.4441783448400095   11   11    4    4
 -0.4466721259368135   11   11    5    5
 -0.4471935484766862   11   11    6    6
 -0.4478569402130694   11   11    7    7
 -0.457730724064488   11   11    8    8
 -0.4581143477792557   11   11    9    9
 -0.4584997545331775   11   11   10   10
 -0.4683858892952227   11   11   11   11
 -0.4184173627243304   12   12    1    1
 -0.4431345613594412   12   12    2    2
 -0.44450587679953   12   12    3    3
 -0.4446945598368725   12   12    4    4
 -0.4471912391551141   12   12    5    5
 -0.4477132676816089   12   12    6    6
 -0.4483774303983135   12   12    7    7
 -0.4582626893595818   12   12    8    8
 -0.4586467589139926   12   12    9    9
 -0.459032613579769   12   12   10   10
 -0.46893023780564   12   12   11   11
 -0.4694752189467738   12   12   12   12
 -0.4196442168439446   13   13    1    1
 -0.4444338895197438   13   13    2    2
 -0.4458092258350324   13   13    3    3
 -0.4459984621155773   13   13    4    4
 -0.4485024620222547   13   13    5    5
 -0.4490260212042751   13   13    6    6
 -0.4496921313324347   13   13    7    7
 -0.4596063751584827   13   13    8    8
 -0.4599915708547724   13   13    9    9
 -0.4603785568966066   13   13   10   10
 -0.4703052022438212   13   13   11   11
 -0.4708517813405316   13   13   12   12
 -0.4722323799942397   13   13   13   13
 -0.4197885650405148   14   14    1    1
 -0.4445867648075991   14   14    2    2
 -0.4459625742077268   14   14    3    3
 -0.446151875581307   14   14    4    4
 -0.4486567368077792   14   14    5    5
 -0.4491804760824131   14   14    6    6
 -0.4498468153375137   14   14    7    7
 -0.4597644694410282   14   14    8    8
 -0.4601497976359962   14   14    9    9
 -0.4605369167923473   14   14   10   10
 -0.4704669766828735   14   14   11   11
 -0.4710137437905316   14   14   12   12
 -0.4723948173392051   14   14   13   13
 -0.4725573105589732   14   14   14   14
 -0.420088940353569   15   15    1    1
 -0.4449048842128905   15   15    2    2
 -0.4462816780590315   15   15    3    3
 -0.4464711148852278   15   15    4    4
 -0.4489777684389279   15   15    5    5
 -0.4495018824697168   15   15    6    6
 -0.4501686985168956   15   15    7    7
 -0.4600934490939785   15   15    8    8
 -0.4604790530065025   15   15    9    9
 -0.4608664491619133   15   15   10   10
 -0.4708036144028388   15   15   11   11
 -0.4713507727439769   15   15   12   12
 -0.47273283450537   15   15   13   13
 -0.4728954439954604   15   15   14   14
 -0.4732338193797882   15   15   15   15
 -0.4315779529688085   16   16    1    1
 -0.4570725880876973   16   16    2    2
 -0.4584870358693444   16   16    3    3
 -0.4586816536033839   16   16    4    4
 -0.4612568616262311   16   16    5    5
 -0.4617953096518795   16   16    6    6
 -0.4624803624514271   16   16    7    7
 -0.4726765450364254   16   16    8    8
 -0.4730726948305233   16   16    9    9
 -0.4734706858835595   16   16   10   10
 -0.4836796226610472   16   16   11   11
 -0.4842417452358986   16   16   12   12
 -0.4856616050050145   16   16   13   13
 -0.4858286617021211   16   16   14   14
 -0.4861762913149844   16   16   15   15
 -0.4994727269208517   16   16   16   16
 -0.4326791564208381   17   17    1    1
 -0.4582388430095901   17   17    2    2
 -0.4596568998606281   17   17    3    3
 -0.4598520141763838   17   17    4    4
 -0.4624337930352641   17   17    5    5
 -0.4629736149513545   17   17    6    6
 -0.4636604157143986   17   17    7    7
 -0.4738826146224803   17   17    8    8
 -0.474279775222431   17   17    9    9
 -0.47467878177943   17   17   10   10
 -0.484913767423278   17   17   11   11
 -0.4854773242959559   17   17   12   12
 -0.4869008069435538   17   17   13   13
 -0.4870682898983279   17   17   14   14
 -0.4874168065141696   17   17   15   15
 -0.5007471689707672   17   17   16   16
 -0.5020248628549692   17   17   17   17
 -0.4328106111097904   18   18    1    1
 -0.4583780631307347   18   18    2    2
 -0.4597965508096032   18   18    3    3
 -0.459991724404137   18   18    4    4
 -0.4625742876477786   18   18    5    5
 -0.4631142735702026   18   18    6    6
 -0.4638012829940508   18   18    7    7
 -0.4740265875658972   18   18    8    8
 -0.4744238688294444   18   18    9    9
 -0.4748229966108704   18   18   10   10
 -0.4850610918032934   18   18   11   11
 -0.4856248198933555   18   18   12   12
 -0.4870487350172258   18   18   13   13
 -0.4872162688559387   18   18   14   14
 -0.4875648913565743   18   18   15   15
 -0.5008993037855922   18   18   16   16
 -0.5021773858531621   18   18   17   17
 -0.5023299551902252   18   18   18   18
 -0.4357415146465793   19   19    1    1
 -0.4614821041406617   19   19    2    2
 -0.4629101975233835   19   19    3    3
 -0.4631066927929499   19   19    4    4
 -0.4657067446183186   19   19    5    5
 -0.4662503872132207   19   19    6    6
 -0.4669420489221525   19   19    7    7
 -0.4772365971321287   19   19    8    8
 -0.4776365687018526   19   19    9    9
 -0.4780383992936908   19   19   10   10
 -0.4883458247396686   19   19   11   11
 -0.4889133702792354   19   19   12   12
 -0.4903469278604888   19   19   13   13
 -0.4905155962035502   19   19   14   14
 -0.4908665795033297   19   19   15   15
 -0.5042912898029311   19   19   16   16
 -0.5055780267767256   19   19   17   17
 -0.5057316292816412   19   19   18   18
 -0.5091563388032652   19   19   19   19
 -0.4357667470628562   20   20    1    1
 -0.4615088271132604   20   20    2    2
 -0.4629370031923641   20   20    3    3
 -0.4631335098403515   20   20    4    4
 -0.4657337122265178   20   20    5    5
 -0.4662773863020473   20   20    6    6
 -0.4669690880629265   20   20    7    7
 -0.4772642323977085   20   20    8    8
 -0.477664227128524   20   20    9    9
 -0.478066080989104   20   20   10   10
 -0.4883741033055677   20   20   11   11
 -0.4889416817099059   20   20   12   12
 -0.4903753223039558   20   20   13   13
 -0.4905440004140688   20   20   14   14
 -0.4908950040381838   20   20   15   15
 -0.5043204917204015   20   20   16   16
 -0.5056073032050742   20   20   17   17
 -0.5057609146046261   20   20   18   18
 -0.5091858224403731   20   20   19   19
 -0.5092153077847855   20   20   20   20
 -0.4378810977357346   21   21    1    1
 -0.4637480789738561   21   21    2    2
 -0.4651831845974333   21   21    3    3
 -0.4653806447003738   21   21    4    4
 -0.4679934633306705   21   21    5    5
 -0.4685397753258099   21   21    6    6
 -0.4692348332401666   21   21    7    7
 -0.4795799298613457   21   21    8    8
 -0.4799818653761562   21   21    9    9
 -0.4803856690412732   21   21   10   10
 -0.490743706128409   21   21   11   11
 -0.4913140384367319   21   21   12   12
 -0.4927546350892124   21   21   13   13
 -0.4929241316295476   21   21   14   14
 -0.4932768383316368   21   21   15   15
 -0.5067674668009979   21   21   16   16
 -0.5080605219257529   21   21   17   17
 -0.5082148786514873   21   21   18   18
 -0.5116564042219189   21   21   19   19
 -0.5116860326299271   21   21   20   20
 -0.5141687454910751   21   21   21   21
 -0.4451954985814705   22   22    1    1
 -0.4714945639411106   22   22    2    2
 -0.472953641683697   22   22    3    3
 -0.4731544001759752   22   22    4    4
 -0.4758108635374513   22   22    5    5
 -0.4763663011718108   22   22    6    6
 -0.477072969389108   22   22    7    7
 -0.4875908713308786   22   22    8    8
 -0.4879995208086454   22   22    9    9
 -0.4884100696424507   22   22   10   10
 -0.4989411282087553   22   22   11   11
 -0.4995209873935292   22   22   12   12
 -0.5009856478876045   22   22   13   13
 -0.5011579757116931   22   22   14   14
 -0.5015165740547173   22   22   15   15
 -0.5152325510600076   22   22   16   16
 -0.5165472054808888   22   22   17   17
 -0.516704140593704   22   22   18   18
 -0.5202031536822611   22   22   19   19
 -0.5202332770055642   22   22   20   20
 -0.5227574613007274   22   22   21   21
 -0.531489643705551   22   22   22   22
 -0.4452202336207961   23   23    1    1
 -0.471520760155174   23   23    2    2
 -0.4729799189640458   23   23    3    3
 -0.4731806886104557   23   23    4    4
 -0.4758372995649014   23   23    5    5
 -0.4763927680593478   23   23    6    6
 -0.4770994755390952   23   23    7    7
 -0.4876179618549643   23   23    8    8
 -0.4880266340372754   23   23    9    9
 -0.4884372056811531   23   23   10   10
 -0.4989688493525376   23   23   11   11
 -0.4995487407542584   23   23   12   12
 -0.5010134826247965   23   23   13   13
 -0.5011858200234103   23   23   14   14
 -0.5015444382901402   23   23   15   15
 -0.5152611773544175   23   23   16   16
 -0.5165759048174317   23   23   17   17
 -0.5167328486495536   23   23   18   18
 -0.5202320561431006   23   23   19   19
 -0.520262181140054   23   23   20   20
 -0.5227865056787686   23   23   21   21
 -0.5315191732432037   23   23   22   22
 -0.5315487044215161   23   23   23   23
 -0.4456086463705107   24   24    1    1
 -0.4719321176388847   24   24    2    2
 -0.4733925494264813   24   24    3    3
 -0.4735934942255112   24   24    4    4
 -0.4762524228229745   24   24    5    5
 -0.4768083759114016   24   24    6    6
 -0.4775156999269098   24   24    7    7
 -0.4880433626320898   24   24    8    8
 -0.4884523913424157   24   24    9    9
 -0.4888633211714097   24   24   10   10
 -0.4994041527106595   24   24   11   11
 -0.4999845500130489   24   24   12   12
 -0.5014505697330075   24   24   13   13
 -0.5016230574797812   24   24   14   14
 -0.5019819886071957   24   24   15   15
 -0.5157106942352874   24   24   16   16
 -0.5170265686742709   24   24   17   17
 -0.5171836494251149   24   24   18   18
 -0.5206859096478546   24   24   19   19
 -0.5207160609260325   24   24   20   20
 -0.5232425877003178   24   24   21   21
 -0.5319828736952844   24   24   22   22
 -0.5320124306367704   24   24   23   23
 -0.5324765614095015   24   24   24   24
 -0.4517785345596969   25   25    1    1
 -0.4784664800720067   25   25    2    2
 -0.4799471329682168   25   25    3    3
 -0.4801508600448177   25   25    4    4
 -0.4828466041131723   25   25    5    5
 -0.4834102549166728   25   25    6    6
 -0.48412737252601   25   25    7    7
 -0.4948008010333428   25   25    8    8
 -0.4952154931468128   25   25    9    9
 -0.4956321127018009   25   25   10   10
 -0.5063188923786103   25   25   11   11
 -0.506907325850159   25   25   12   12
 -0.5083936440491281   25   25   13   13
 -0.5085685200577102   25   25   14   14
 -0.508932420938162   25   25   15   15
 -0.5228512139431426   25   25   16   16
 -0.5241853079526522   25   25   17   17
 -0.5243445636403543   25   25   18   18
 -0.5278953160863931   25   25   19   19
 -0.5279258848385509   25   25   20   20
 -0.5304873938507961   25   25   21   21
 -0.5393486976666011   25   25   22   22
 -0.5393786638528933   25   25   23   23
 -0.5398492209707958   25   25   24   24
 -0.5473239622253442   25   25   25   25
 -0.4547744520351452   26   26    1    1
 -0.4816393755936166   26   26    2    2
 -0.4831298472694887   26   26    3    3
 -0.4833349253388047   26   26    4    4
 -0.4860485459244037   26   26    5    5
 -0.4866159345134852   26   26    6    6
 -0.487337807605904   26   26    7    7
 -0.4980820157287829   26   26    8    8
 -0.4984994578253854   26   26    9    9
 -0.4989188401451131   26   26   10   10
 -0.5096764879742157   26   26   11   11
 -0.5102688235747628   26   26   12   12
 -0.5117649981221986   26   26   13   13
 -0.5119410338009511   26   26   14   14
 -0.5123073478483059   26   26   15   15
 -0.5263184417308423   26   26   16   16
 -0.5276613826315855   26   26   17   17
 -0.5278216944050939   26   26   18   18
 -0.5313959932582555   26   26   19   19
 -0.5314267647235831   26   26   20   20
 -0.5340052600887121   26   26   21   21
 -0.5429253266232522   26   26   22   22
 -0.5429554915268681   26   26   23   23
 -0.5434291690902651   26   26   24   24
 -0.550953478233139   26   26   25   25
 -0.5546070629595723   26   26   26   26
 -0.4613579182951743   27   27    1    1
 -0.488611747424383   27   27    2    2
 -0.4901237956640786   27   27    3    3
 -0.4903318425117504   27   27    4    4
 -0.493084746371702   27   27    5    5
 -0.4936603486667553   27   27    6    6
 -0.4943926718342096   27   27    7    7
 -0.5052924166882112   27   27    8    8
 -0.505715901815477   27   27    9    9
 -0.5061413552531834   27   27   10   10
 -0.5170547343710671   27   27   11   11
 -0.5176556448188233   27   27   12   12
 -0.5191734784867487   27   27   13   13
 -0.5193520625165494   27   27   14   14
 -0.5197236794479175   27   27   15   15
 -0.5339376025866468   27   27   16   16
 -0.5352999843466327   27   27   17   17
 -0.5354626168467064   27   27   18   18
 -0.5390886584391482   27   27   19   19
 -0.5391198753624449   27   27   20   20
 -0.5417356978842819   27   27   21   21
 -0.5507848942694648   27   27   22   22
 -0.5508154958502605   27   27   23   23
 -0.5512960305276463   27   27   24   24
 -0.5589292640728265   27   27   25   25
 -0.5626357393072182   27   27   26   26
 -0.5707806414446174   27   27   27   27
 -0.4614263429876877   28   28    1    1
 -0.4886842141736251   28   28    2    2
 -0.4901964866674882   28   28    3    3
 -0.4904045643709035   28   28    4    4
 -0.4931578765182013   28   28    5    5
 -0.4937335641817039   28   28    6    6
 -0.4944659959611177   28   28    7    7
 -0.5053673573728081   28   28    8    8
 -0.5057909053077954   28   28    9    9
 -0.5062164218451463   28   28   10   10
 -0.5171314195428373   28   28   11   11
 -0.5177324191125332   28   28   12   12
 -0.5192504778926715   28   28   13   13
 -0.5194290884085407   28   28   14   14
 -0.5198007604549795   28   28   15   15
 -0.5340167916822048   28   28   16   16
 -0.5353793754990958   28   28   17   17
 -0.5355420321194421   28   28   18   18
 -0.5391686114956115   28   28   19   19
 -0.5391998330487373   28   28   20   20
 -0.5418160435271795   28   28   21   21
 -0.5508665820124014   28   28   22   22
 -0.5508971881317638   28   28   23   23
 -0.5513777940779764   28   28   24   24
 -0.5590121597195996   28   28   25   25
 -0.5627191846669541   28   28   26   26
 -0.570865294787141   28   28   27   27
 -0.5709499606847305   28   28   28   28
 -0.4755646957643874   29   29    1    1
 -0.5036577628697283   29   29    2    2
 -0.5052163722109293   29   29    3    3
 -0.5054308255277454   29   29    4    4
 -0.5082685006487538   29   29    5    5
 -0.5088618276937081   29   29    6    6
 -0.5096167015790823   29   29    7    7
 -0.5208520866019667   29   29    8    8
 -0.5212886122748176   29   29    9    9
 -0.5217271668690736   29   29   10   10
 -0.5329766060011387   29   29   11   11
 -0.5335960205227855   29   29   12   12
 -0.5351605934452037   29   29   13   13
 -0.5353446766839058   29   29   14   14
 -0.5357277369629186   29   29   15   15
 -0.550379355077693   29   29   16   16
 -0.5517836891998793   29   29   17   17
 -0.5519513297070687   29   29   18   18
 -0.5556890294372712   29   29   19   19
 -0.5557212076356755   29   29   20   20
 -0.5584175802185237   29   29   21   21
 -0.5677454320991937   29   29   22   22
 -0.5677769760066113   29   29   23   23
 -0.5682723079790192   29   29   24   24
 -0.5761405947140258   29   29   25   25
 -0.5799612049112348   29   29   26   26
 -0.5883569162524777   29   29   27   27
 -0.5884441763589726   29   29   28   28
 -0.6064744242656891   29   29   29   29
 -0.4916535439222596   30   30    1    1
 -0.5206970286994176   30   30    2    2
 -0.5223083674152995   30   30    3    3
 -0.5225300759108158   30   30    4    4
 -0.5254637525318302   30   30    5    5
 -0.5260771524476667   30   30    6    6
 -0.5268575645015137   30   30    7    7
 -0.5384730542824644   30   30    8    8
 -0.5389243480727345   30   30    9    9
 -0.5393777394249307   30   30   10   10
 -0.5510077587801894   30   30   11   11
 -0.5516481287391812   30   30   12   12
 -0.5532656327904341   30   30   13   13
 -0.5534559437565143   30   30   14   14
 -0.5538519633630786   30   30   15   15
 -0.5689992609536746   30   30   16   16
 -0.5704511051594645   30   30   17   17
 -0.5706244171193275   30   30   18   18
 -0.5744885671179258   30   30   19   19
 -0.5745218339382415   30   30   20   20
 -0.5773094276093012   30   30   21   21
 -0.5869528504183514   30   30   22   22
 -0.5869854614889566   30   30   23   23
 -0.5874975510570457   30   30   24   24
 -0.5956320301138744   30   30   25   25
 -0.5995818955267898   30   30   26   26
 -0.6082616425127085   30   30   27   27
 -0.6083518547193407   30   30   28   28
 -0.6269920846608962   30   30   29   29
 -0.6482038788418812   30   30   30   30
 -0.4919619693778609   31   31    1    1
 -0.5210236737938995   31   31    2    2
 -0.5226360233392237   31   31    3    3
 -0.5228578709175241   31   31    4    4
 -0.5257933879006381   31   31    5    5
 -0.5264071726161998   31   31    6    6
 -0.5271880742402861   31   31    7    7
 -0.5388108506822852   31   31    8    8
 -0.539262427579419   31   31    9    9
 -0.5397161033543273   31   31   10   10
 -0.5513534184853668   31   31   11   11
 -0.5519941901630054   31   31   12   12
 -0.5536127089113556   31   31   13   13
 -0.5538031392638354   31   31   14   14
 -0.5541994073025103   31   31   15   15
 -0.5693562071375591   31   31   16   16
 -0.5708089621182559   31   31   17   17
 -0.5709823828006551   31   31   18   18
 -0.5748489568684756   31   31   19   19
 -0.5748822445578246   31   31   20   20
 -0.5776715869498253   31   31   21   21
 -0.5873210592974383   31   31   22   22
 -0.5873536908257103   31   31   23   23
 -0.5878661016392379   31   31   24   24
 -0.5960056836398776   31   31   25   25
 -0.5999580268932451   31   31   26   26
 -0.6086432188819544   31   31   27   27
 -0.6087334876807566   31   31   28   28
 -0.62738541106271   31   31   29   29
 -0.6486105118848557   31   31   30   30
 -0.6490174000179909   31   31   31   31
 -0.4922243245395883   32   32    1    1
 -0.5213015270807599   32   32    2    2
 -0.5229147364653646   32   32    3    3
 -0.5231367023513003   32   32    4    4
 -0.5260737847969517   32   32    5    5
 -0.5266878968337259   32   32    6    6
 -0.5274692148997013   32   32    7    7
 -0.5390981895756756   32   32    8    8
 -0.5395500072912817   32   32    9    9
 -0.5400039250039591   32   32   10   10
 -0.5516474461222156   32   32   11   11
 -0.5522885595127662   32   32   12   12
 -0.5539079413903305   32   32   13   13
 -0.5540984732961599   32   32   14   14
 -0.5544949526580099   32   32   15   15
 -0.5696598353631168   32   32   16   16
 -0.5711133650739587   32   32   17   17
 -0.5712868782387326   32   32   18   18
 -0.5751555142863971   32   32   19   19
 -0.5751888197275189   32   32   20   20
 -0.5779796496295712   32   32   21   21
 -0.5876342678808024   32   32   22   22
 -0.5876669168109274   32   32   23   23
 -0.5881796008846464   32   32   24   24
 -0.5963235235894159   32   32   25   25
 -0.6002779745619119   32   32   26   26
 -0.6089677982195116   32   32   27   27
 -0.6090581151571677   32   32   28   28
 -0.6277199853006189   32   32   29   29
 -0.648956405117129   32   32   30   30
 -0.6493635102369596   32   32   31   31
 -0.6497098050307696   32   32   32   32
 -0.5129801661145335   33   33    1    1
 -0.5432834799616664   33   33    2    2
 -0.5449647142624419   33   33    3    3
 -0.5451960398824132   33   33    4    4
 -0.5482569715872241   33   33    5    5
 -0.5488969791588368   33   33    6    6
 -0.5497112434105016   33   33    7    7
 -0.5618305822233546   33   33    8    8
 -0.5623014519371216   33   33    9    9
 -0.5627745101994684   33   33   10   10
 -0.5749090088408921   33   33   11   11
 -0.575577156344351   33   33   12   12
 -0.5772648234163366   33   33   13   13
 -0.5774633895656101   33   33   14   14
 -0.5778765874486952   33   33   15   15
 -0.5936809344940177   33   33   16   16
 -0.5951957558373505   33   33   17   17
 -0.5953765856087601   33   33   18   18
 -0.5994083521498059   33   33   19   19
 -0.5994430619962468   33   33   20   20
 -0.6023515740615357   33   33   21   21
 -0.6124133028859322   33   33   22   22
 -0.6124473285379856   33   33   23   23
 -0.6129816311886044   33   33   24   24
 -0.6214689622968838   33   33   25   25
 -0.6255901623587869   33   33   26   26
 -0.6346464136676818   33   33   27   27
 -0.6347405390397366   33   33   28   28
 -0.6541893325449131   33   33   29   29
 -0.6763212379019699   33   33   30   30
 -0.6767455096040887   33   33   31   31
 -0.6771064067641782   33   33   32   32
 -0.7056582531633241   33   33   33   33
 -0.1864561561118656    1    1  0  0
 -0.2091358942350133    2    2  0  0
 -0.2104322726049146    3    3  0  0
 -0.210610958329336    4    4  0  0
 -0.212982492266284    5    5  0  0
 -0.2134800325646894    6    6  0  0
 -0.2141138786213415    7    7  0  0
 -0.2236589749403638    8    8  0  0
 -0.2240340288186318    9    9  0  0
 -0.2244111422990386   10   10  0  0
 -0.2341929446476114   11   11  0  0
 -0.2347376094733869   12   12  0  0
 -0.2361161899971198   13   13  0  0
 -0.2362786552794866   14   14  0  0
 -0.2366169096898941   15   15  0  0
 -0.2497363634604259   16   16  0  0
 -0.2510124314274846   17   17  0  0
 -0.2511649775951126   18   18  0  0
 -0.2545781694016326   19   19  0  0
 -0.2546076538923928   20   20  0  0
 -0.2570843727455375   21   21  0  0
 -0.2657448218527755   22   22  0  0
 -0.2657743522107581   23   23  0  0
 -0.2662382807047508   24   24  0  0
 -0.2736619811126721   25   25  0  0
 -0.2773035314797861   26   26  0  0
 -0.2853903207223087   27   27  0  0
 -0.2854749803423652   28   28  0  0
 -0.3032372121328445   29   29  0  0
 -0.3241019394209406   30   30  0  0
 -0.3245087000089955   31   31  0  0
 -0.3248549025153848   32   32  0  0
 -0.352829126581662   33   33  0  0
 -8424.450411992599  0  0  0  0
