 &FCI NORB=  15,NELEC=22,MS2=0,
  ORBSYM=1,1,1,1,1,1,1,1,1,1,1,1,1,1,1,
  ISYM=1,
 &END
 -1.348839460720984    1    1    1    1
 -1.324266902036312    2    2    1    1
 -1.300141995320532    2    2    2    2
 -1.221319471229912    3    3    1    1
 -1.199070015120814    3    3    2    2
 -1.105855288373612    3    3    3    3
 -1.157105778060342    4    4    1    1
 -1.136026138515571    4    4    2    2
 -1.047712391408202    4    4    3    3
 -0.9926264915951979    4    4    4    4
 -1.15142792173619    5    5    1    1
 -1.130451718858118    5    5    2    2
 -1.04257132259648    5    5    3    3
 -0.987755726355159    5    5    4    4
 -0.9829088617003093    5    5    5    5
 -1.149539872933294    6    6    1    1
 -1.128598065690403    6    6    2    2
 -1.040861770916864    6    6    3    3
 -0.9861360583051727    6    6    4    4
 -0.9812971412750392    6    6    5    5
 -0.9796880636611529    6    6    6    6
 -1.146523609398053    7    7    1    1
 -1.125636751105638    7    7    2    2
 -1.038130666516951    7    7    3    3
 -0.9835485480295501    7    7    4    4
 -0.9787223277743017    7    7    5    5
 -0.9771174721993777    7    7    6    6
 -0.974553625680925    7    7    7    7
 -1.142437285717854    8    8    1    1
 -1.121624870256748    8    8    2    2
 -1.034430666018961    8    8    3    3
 -0.9800430836069303    8    8    4    4
 -0.9752340644785954    8    8    5    5
 -0.9736349287678637    8    8    6    6
 -0.971080220052292    8    8    7    7
 -0.9676191939852786    8    8    8    8
 -1.142152667905209    9    9    1    1
 -1.121345437485101    9    9    2    2
 -1.034172956123481    9    9    3    3
 -0.9797989234046672    9    9    4    4
 -0.9749911023574196    9    9    5    5
 -0.9733923650427434    9    9    6    6
 -0.9708382927871466    9    9    7    7
 -0.9673781289728637    9    9    8    8
 -0.9671371240174841    9    9    9    9
 -1.13936818785746   10   10    1    1
 -1.118611683859119   10   10    2    2
 -1.031651722278685   10   10    3    3
 -0.9774102492548012   10   10    4    4
 -0.9726141493041769   10   10    5    5
 -0.9710193095876759   10   10    6    6
 -0.9684714639631034   10   10    7    7
 -0.9650197357611282   10   10    8    8
 -0.964779318357228   10   10    9    9
 -0.9624272608451854   10   10   10   10
 -1.138967088575267   11   11    1    1
 -1.118217891625642   11   11    2    2
 -1.031288543132831   11   11    3    3
 -0.9770661650916985   11   11    4    4
 -0.9722717535437064   11   11    5    5
 -0.9706774752691277   11   11    6    6
 -0.9681305265794196   11   11    7    7
 -0.9646800135120417   11   11    8    8
 -0.9644396807438625   11   11    9    9
 -0.9620884512421064   11   11   10   10
 -0.9617497609124022   11   11   11   11
 -1.125973060993718   12   12    1    1
 -1.105460583471865   12   12    2    2
 -1.019522977728508   12   12    3    3
 -0.9659192014739163   12   12    4    4
 -0.9611794874817334   12   12    5    5
 -0.9596033977009928   12   12    6    6
 -0.9570855061472239   12   12    7    7
 -0.9536743586264168   12   12    8    8
 -0.9534367677202719   12   12    9    9
 -0.9511123624712118   12   12   10   10
 -0.9507775361262791   12   12   11   11
 -0.9399304891375939   12   12   12   12
 -1.124062172190738   13   13    1    1
 -1.103584506393051   13   13    2    2
 -1.017792745354384   13   13    3    3
 -0.9642799400647215   13   13    4    4
 -0.9595482698408228   13   13    5    5
 -0.9579748548419387   13   13    6    6
 -0.9554612364017493   13   13    7    7
 -0.9520558779391612   13   13    8    8
 -0.9518186902485265   13   13    9    9
 -0.9494982297474517   13   13   10   10
 -0.9491639716362857   13   13   11   11
 -0.9383353331702856   13   13   12   12
 -0.9367428843420575   13   13   13   13
 -1.094494559972284   14   14    1    1
 -1.074555543811978   14   14    2    2
 -0.9910204706903031   14   14    3    3
 -0.9389152796008784   14   14    4    4
 -0.9343080724127325   14   14    5    5
 -0.9327760449150889   14   14    6    6
 -0.9303285453223649   14   14    7    7
 -0.9270127622595878   14   14    8    8
 -0.9267818136132276   14   14    9    9
 -0.9245223910849284   14   14   10   10
 -0.9241969253826312   14   14   11   11
 -0.9136531261283203   14   14   12   12
 -0.912102565471935   14   14   13   13
 -0.8881103917056291   14   14   14   14
 -1.081452612046326   15   15    1    1
 -1.06175118830536   15   15    2    2
 -0.9792115153560449   15   15    3    3
 -0.9277272073789836   15   15    4    4
 -0.9231748994643741   15   15    5    5
 -0.9216611275374533   15   15    6    6
 -0.9192427922397423   15   15    7    7
 -0.9159665198987359   15   15    8    8
 -0.9157383232260534   15   15    9    9
 -0.9135058238749305   15   15   10   10
 -0.9131842364072963   15   15   11   11
 -0.9027660765904442   15   15   12   12
 -0.9012339923450675   15   15   13   13
 -0.8775277082417478   15   15   14   14
 -0.8670711275578166   15   15   15   15
 -0.674419730360492    1    1  0  0
 -0.6500709976602661    2    2  0  0
 -0.5529276441868058    3    3  0  0
 -0.4963132457975989    4    4  0  0
 -0.4914544308501547    5    5  0  0
 -0.4898440318305765    6    6  0  0
 -0.4872768128404625    7    7  0  0
 -0.4838095969926393    8    8  0  0
 -0.483568562008742    9    9  0  0
 -0.4812136304225927   10   10  0  0
 -0.4808748804562011   11   11  0  0
 -0.469965244568797   12   12  0  0
 -0.4683714421710288   13   13  0  0
 -0.4440551958528146   14   14  0  0
 -0.4335355637789083   15   15  0  0
 -1747.734433463279  0  0  0  0
