 &FCI NORB=  55,NELEC=75,MS2=3,
  ORBSYM=1,1,1,1,1,1,1,1,1,1,1,1,1,1,1,1,1,1,1,1,1,1,1,1,1,1,1,1,1,1,1,1,1,1,1,1,1,1,1,1,1,1,1,1,1,1,1,1,1,1,1,1,1,1,1,
  ISYM=1,
 &END
 -0.7468154687959662    1    1    1    1
 -0.7365570494880432    2    2    1    1
 -0.7264395420533932    2    2    2    2
 -0.7326713037845014    3    3    1    1
 -0.7226071717958837    3    3    2    2
 -0.7187950194105309    3    3    3    3
 -0.7281174135658171    4    4    1    1
 -0.7181158348012519    4    4    2    2
 -0.714327376701959    4    4    3    3
 -0.7098875024542588    4    4    4    4
 -0.7076478476424436    5    5    1    1
 -0.6979274432764639    5    5    2    2
 -0.6942454901053141    5    5    3    3
 -0.6899304340488994    5    5    4    4
 -0.6705344187371067    5    5    5    5
 -0.6429872656646609    6    6    1    1
 -0.634155053081441    6    6    2    2
 -0.6308095345304975    6    6    3    3
 -0.6268887622082936    6    6    4    4
 -0.6092650375101001    6    6    5    5
 -0.5535940819135189    6    6    6    6
 -0.6389111838249621    7    7    1    1
 -0.6301349611862361    7    7    2    2
 -0.6268106508428857    7    7    3    3
 -0.6229147334279458    7    7    4    4
 -0.6054027306067259    7    7    5    5
 -0.5500846892640086    7    7    6    6
 -0.5465975436672951    7    7    7    7
 -0.6378252533346878    8    8    1    1
 -0.6290639472727789    8    8    2    2
 -0.625745287120022    8    8    3    3
 -0.6218559914321947    8    8    4    4
 -0.6043737530262657    8    8    5    5
 -0.5491497334337965    8    8    6    6
 -0.5456685147919138    8    8    7    7
 -0.5447410649478717    8    8    8    8
 -0.578181584645748    9    9    1    1
 -0.5702395569571974    9    9    2    2
 -0.5672312279893651    9    9    3    3
 -0.5637056241783103    9    9    4    4
 -0.5478581671329071    9    9    5    5
 -0.4977982000940555    9    9    6    6
 -0.4946425136417885    9    9    7    7
 -0.4938017905476429    9    9    8    8
 -0.447625897950969    9    9    9    9
 -0.5769962995422601   10   10    1    1
 -0.5690705531870496   10   10    2    2
 -0.5660683913604868   10   10    3    3
 -0.562550015115631   10   10    4    4
 -0.5467350457095144   10   10    5    5
 -0.4967777027160974   10   10    6    6
 -0.4936284854912195   10   10    7    7
 -0.492789485898109   10   10    8    8
 -0.4467082549079071   10   10    9    9
 -0.4457924930534858   10   10   10   10
 -0.57235862442873   11   11    1    1
 -0.5644965821850656   11   11    2    2
 -0.5615185505846427   11   11    3    3
 -0.5580284536995743   11   11    4    4
 -0.5423405989562279   11   11    5    5
 -0.4927847939389166   11   11    6    6
 -0.4896608889151091   11   11    7    7
 -0.4888286328791693   11   11    8    8
 -0.4431177851623674   11   11    9    9
 -0.4422093838507529   11   11   10   10
 -0.4386550743065131   11   11   11   11
 -0.5693080532609806   12   12    1    1
 -0.561487914324726   12   12    2    2
 -0.5585257551108614   12   12    3    3
 -0.5550542598305839   12   12    4    4
 -0.5394500186038708   12   12    5    5
 -0.4901583373431139   12   12    6    6
 -0.4870510821856484   12   12    7    7
 -0.4862232619285351   12   12    8    8
 -0.4407560450196683   12   12    9    9
 -0.439852485327856   12   12   10   10
 -0.4363171196306277   12   12   11   11
 -0.4339916258434603   12   12   12   12
 -0.5460805320137148   13   13    1    1
 -0.5385794513487389   13   13    2    2
 -0.5357381469439425   13   13    3    3
 -0.5324082871629707   13   13    4    4
 -0.5174406921993218   13   13    5    5
 -0.4701600901201075   13   13    6    6
 -0.4671796096231747   13   13    7    7
 -0.4663855640729198   13   13    8    8
 -0.4227733898615091   13   13    9    9
 -0.4219066950125873   13   13   10   10
 -0.4185155706999291   13   13   11   11
 -0.4162849560490086   13   13   12   12
 -0.3993007106898219   13   13   13   13
 -0.5453132942471199   14   14    1    1
 -0.5378227525265653   14   14    2    2
 -0.5349854401264604   14   14    3    3
 -0.5316602587656696   14   14    4    4
 -0.5167136931254593   14   14    5    5
 -0.46949951982628   14   14    6    6
 -0.4665232268750767   14   14    7    7
 -0.4657302969509957   14   14    8    8
 -0.4221793974146132   14   14    9    9
 -0.421313920263414   14   14   10   10
 -0.417927560447   14   14   11   11
 -0.4157000797876844   14   14   12   12
 -0.3987396971258707   14   14   13   13
 -0.3981794717804487   14   14   14   14
 -0.5438379327049527   15   15    1    1
 -0.5363676568706347   15   15    2    2
 -0.5335380209046868   15   15    3    3
 -0.5302218359222205   15   15    4    4
 -0.5153157086655333   15   15    5    5
 -0.4682292747342838   15   15    6    6
 -0.4652610342333046   15   15    7    7
 -0.4644702496050159   15   15    8    8
 -0.4210371783390617   15   15    9    9
 -0.4201740427623629   15   15   10   10
 -0.4167968448444279   15   15   11   11
 -0.4145753907011266   15   15   12   12
 -0.3976608948654432   15   15   13   13
 -0.397102185226567   15   15   14   14
 -0.3960278133039043   15   15   15   15
 -0.5436006564866382   16   16    1    1
 -0.5361336399299342   16   16    2    2
 -0.5333052385327445   16   16    3    3
 -0.5299905004001292   16   16    4    4
 -0.5150908766793163   16   16    5    5
 -0.4680249865356645   16   16    6    6
 -0.4650580410765329   16   16    7    7
 -0.4642676014671824   16   16    8    8
 -0.4208534800285206   16   16    9    9
 -0.4199907210374426   16   16   10   10
 -0.4166149965892717   16   16   11   11
 -0.4143945116653033   16   16   12   12
 -0.3974873956157018   16   16   13   13
 -0.396928929741562   16   16   14   14
 -0.3958550265668322   16   16   15   15
 -0.3956823152165272   16   16   16   16
 -0.5362074870219617   17   17    1    1
 -0.5288420246450413   17   17    2    2
 -0.5260520905502619   17   17    3    3
 -0.5227824340790703   17   17    4    4
 -0.5080854507373914   17   17    5    5
 -0.4616596740624885   17   17    6    6
 -0.4587330801561191   17   17    7    7
 -0.4579533908170521   17   17    8    8
 -0.4151297174455993   17   17    9    9
 -0.4142786922950752   17   17   10   10
 -0.4109488789447177   17   17   11   11
 -0.4087585934348611   17   17   12   12
 -0.3920814204006369   17   17   13   13
 -0.3915305498684056   17   17   14   14
 -0.3904712521730194   17   17   15   15
 -0.3903008897607925   17   17   16   16
 -0.3849926536764851   17   17   17   17
 -0.5330631892147121   18   18    1    1
 -0.5257409175946565   18   18    2    2
 -0.5229673435542757   18   18    3    3
 -0.5197168602090132   18   18    4    4
 -0.5051060593500726   18   18    5    5
 -0.4589525214471599   18   18    6    6
 -0.4560430889624886   18   18    7    7
 -0.4552679716884123   18   18    8    8
 -0.4126954145089919   18   18    9    9
 -0.4118493797336107   18   18   10   10
 -0.4085390922665531   18   18   11   11
 -0.4063616504973987   18   18   12   12
 -0.3897822716937137   18   18   13   13
 -0.3892346314427607   18   18   14   14
 -0.388181545423827   18   18   15   15
 -0.3880121820095107   18   18   16   16
 -0.3827350731949342   18   18   17   17
 -0.380490731068926   18   18   18   18
 -0.5311333583991003   19   19    1    1
 -0.5238375953538227   19   19    2    2
 -0.521074062390674   19   19    3    3
 -0.5178353466614319   19   19    4    4
 -0.5032774407956344   19   19    5    5
 -0.4572909910006546   19   19    6    6
 -0.4543920914369924   19   19    7    7
 -0.4536197802940306   19   19    8    8
 -0.4112013471179301   19   19    9    9
 -0.4103583752139188   19   19   10   10
 -0.4070600718697414   19   19   11   11
 -0.4048905130201176   19   19   12   12
 -0.3883711559863961   19   19   13   13
 -0.3878254983391072   19   19   14   14
 -0.386776224772228   19   19   15   15
 -0.3866074744986097   19   19   16   16
 -0.3813494702243838   19   19   17   17
 -0.379113253215028   19   19   18   18
 -0.3777407621980832   19   19   19   19
 -0.5266364133837378   20   20    1    1
 -0.5194024213508451   20   20    2    2
 -0.5166622863829209   20   20    3    3
 -0.5134509918772276   20   20    4    4
 -0.4990163433839563   20   20    5    5
 -0.4534192469084574   20   20    6    6
 -0.4505448914479601   20   20    7    7
 -0.4497791192291493   20   20    8    8
 -0.4077198300582487   20   20    9    9
 -0.406883995341616   20   20   10   10
 -0.4036136177312457   20   20   11   11
 -0.4014624278782215   20   20   12   12
 -0.3850829352290185   20   20   13   13
 -0.3845418974994927   20   20   14   14
 -0.3835015078135856   20   20   15   15
 -0.3833341862973403   20   20   16   16
 -0.3781206999501807   20   20   17   17
 -0.3759034163118409   20   20   18   18
 -0.3745425457599632   20   20   19   19
 -0.3713714076501802   20   20   20   20
 -0.5259556406305834   21   21    1    1
 -0.518730999839928   21   21    2    2
 -0.5159944069917258   21   21    3    3
 -0.5127872636646184   21   21    4    4
 -0.4983712745635689   21   21    5    5
 -0.4528331205768812   21   21    6    6
 -0.4499624807403527   21   21    7    7
 -0.449197698420547   21   21    8    8
 -0.4071927784830623   21   21    9    9
 -0.4063580242338769   21   21   10   10
 -0.4030918741776846   21   21   11   11
 -0.4009434651263702   21   21   12   12
 -0.3845851459319886   21   21   13   13
 -0.3840448075915202   21   21   14   14
 -0.3830057627973312   21   21   15   15
 -0.3828386575743887   21   21   16   16
 -0.3776319106006638   21   21   17   17
 -0.3754174932021977   21   21   18   18
 -0.3740583818214839   21   21   19   19
 -0.3708913429808869   21   21   20   20
 -0.3704118988819498   21   21   21   21
 -0.5248965448529805   22   22    1    1
 -0.517686452031707   22   22    2    2
 -0.5149553697507592   22   22    3    3
 -0.511754684519532   22   22    4    4
 -0.4973677243175139   22   22    5    5
 -0.4519212686849865   22   22    6    6
 -0.4490564093407562   22   22    7    7
 -0.4482931670324328   22   22    8    8
 -0.4063728307174206   22   22    9    9
 -0.4055397573793849   22   22   10   10
 -0.4022801842385563   22   22   11   11
 -0.4001361013523765   22   22   12   12
 -0.3838107222492291   22   22   13   13
 -0.3832714719664039   22   22   14   14
 -0.3822345194550412   22   22   15   15
 -0.3820677507251837   22   22   16   16
 -0.3768714883689986   22   22   17   17
 -0.3746615300540281   22   22   18   18
 -0.373305155461388   22   22   19   19
 -0.3701444939598753   22   22   20   20
 -0.3696660152982899   22   22   21   21
 -0.3689216336704851   22   22   22   22
 -0.5221911568360548   23   23    1    1
 -0.5150182258115408   23   23    2    2
 -0.5123012198992576   23   23    3    3
 -0.5091170314340224   23   23    4    4
 -0.4948042235770945   23   23    5    5
 -0.4495920051436602   23   23    6    6
 -0.4467419116732312   23   23    7    7
 -0.4459826032193314   23   23    8    8
 -0.4042783300059803   23   23    9    9
 -0.403449550440971   23   23   10   10
 -0.4002067775824114   23   23   11   11
 -0.3980737455903638   23   23   12   12
 -0.3818325097063526   23   23   13   13
 -0.3812960387926577   23   23   14   14
 -0.3802644308752456   23   23   15   15
 -0.3800985216940511   23   23   16   16
 -0.3749290415791458   23   23   17   17
 -0.3727304736892065   23   23   18   18
 -0.3713810900352673   23   23   19   19
 -0.3682367190120128   23   23   20   20
 -0.3677607064943754   23   23   21   21
 -0.3670201615104877   23   23   22   22
 -0.3651284897960192   23   23   23   23
 -0.5103206584063701   24   24    1    1
 -0.5033107831237009   24   24    2    2
 -0.5006555404450401   24   24    3    3
 -0.4975437352511062   24   24    4    4
 -0.4835562874868682   24   24    5    5
 -0.4393718374499124   24   24    6    6
 -0.4365865325719793   24   24    7    7
 -0.4358444847891799   24   24    8    8
 -0.3950882370320424   24   24    9    9
 -0.3942782973619571   24   24   10   10
 -0.391109239520631   24   24   11   11
 -0.3890246958121948   24   24   12   12
 -0.3731526572279337   24   24   13   13
 -0.3726283814214428   24   24   14   14
 -0.3716202241121143   24   24   15   15
 -0.3714580863940116   24   24   16   16
 -0.3664061193866781   24   24   17   17
 -0.3642575295485372   24   24   18   18
 -0.3629388202105749   24   24   19   19
 -0.3598659273247903   24   24   20   20
 -0.3594007355684185   24   24   21   21
 -0.3586770247226683   24   24   22   22
 -0.3568283546673089   24   24   23   23
 -0.3487168989900251   24   24   24   24
 -0.5097110126209544   25   25    1    1
 -0.5027095115650619   25   25    2    2
 -0.5000574409263365   25   25    3    3
 -0.4969493531968836   25   25    4    4
 -0.4829786152962141   25   25    5    5
 -0.438846949451515   25   25    6    6
 -0.4360649719900836   25   25    7    7
 -0.4353238106818878   25   25    8    8
 -0.3946162516741968   25   25    9    9
 -0.3938072795845889   25   25   10   10
 -0.3906420076036329   25   25   11   11
 -0.3885599541594363   25   25   12   12
 -0.3727068768327091   25   25   13   13
 -0.3721832273432809   25   25   14   14
 -0.3711762744117187   25   25   15   15
 -0.3710143303886484   25   25   16   16
 -0.3659683986266912   25   25   17   17
 -0.3638223755643957   25   25   18   18
 -0.3625052415998322   25   25   19   19
 -0.3594360196926098   25   25   20   20
 -0.3589713836695578   25   25   21   21
 -0.3582485373925051   25   25   22   22
 -0.3564020758189881   25   25   23   23
 -0.3483003103525272   25   25   24   24
 -0.3478842193854703   25   25   25   25
 -0.5088953119250096   26   26    1    1
 -0.5019050155108505   26   26    2    2
 -0.4992571890336443   26   26    3    3
 -0.4961540752389528   26   26    4    4
 -0.4822056949886896   26   26    5    5
 -0.4381446539287243   26   26    6    6
 -0.4353671285212905   26   26    7    7
 -0.4346271533083133   26   26    8    8
 -0.3939847394189159   26   26    9    9
 -0.3931770619434721   26   26   10   10
 -0.3900168554103753   26   26   11   11
 -0.3879381339178168   26   26   12   12
 -0.3721104265868088   26   26   13   13
 -0.3715876151040989   26   26   14   14
 -0.3705822736193894   26   26   15   15
 -0.370420588758568   26   26   16   16
 -0.3653827321018135   26   26   17   17
 -0.3632401433630114   26   26   18   18
 -0.3619251172341919   26   26   19   19
 -0.3588608070639807   26   26   20   20
 -0.3583969146072202   26   26   21   21
 -0.3576752251154766   26   26   22   22
 -0.3558317184712298   26   26   23   23
 -0.3477429184215751   26   26   24   24
 -0.3473274933331886   26   26   25   25
 -0.3467716582207083   26   26   26   26
 -0.5088328549596239   27   27    1    1
 -0.501843416467892   27   27    2    2
 -0.4991959149596976   27   27    3    3
 -0.4960931820116486   27   27    4    4
 -0.4821465136527746   27   27    5    5
 -0.438090880225483   27   27    6    6
 -0.4353136957050729   27   27    7    7
 -0.434573811309608   27   27    8    8
 -0.3939363854831343   27   27    9    9
 -0.393128807134334   27   27   10   10
 -0.3899689884548986   27   27   11   11
 -0.3878905220848246   27   27   12   12
 -0.3720647572959186   27   27   13   13
 -0.3715420099781124   27   27   14   14
 -0.3705367918794448   27   27   15   15
 -0.3703751268622839   27   27   16   16
 -0.3653378885040899   27   27   17   17
 -0.3631955627262299   27   27   18   18
 -0.3618806979911972   27   27   19   19
 -0.3588167639052409   27   27   20   20
 -0.3583529283822238   27   27   21   21
 -0.3576313274637772   27   27   22   22
 -0.3557880470739839   27   27   23   23
 -0.3477002397666337   27   27   24   24
 -0.3472848656635673   27   27   25   25
 -0.3467290987689965   27   27   26   26
 -0.3466865445406267   27   27   27   27
 -0.505626803298215   28   28    1    1
 -0.4986814038276868   28   28    2    2
 -0.4960505836845541   28   28    3    3
 -0.4929674004216836   28   28    4    4
 -0.4791086071652667   28   28    5    5
 -0.4353305592660464   28   28    6    6
 -0.4325708732168119   28   28    7    7
 -0.431835650681469   28   28    8    8
 -0.3914542729566784   28   28    9    9
 -0.390651782993743   28   28   10   10
 -0.3875118736849945   28   28   11   11
 -0.3854465033060578   28   28   12   12
 -0.3697204534215649   28   28   13   13
 -0.3692009998276021   28   28   14   14
 -0.3682021154024069   28   28   15   15
 -0.3680414690034264   28   28   16   16
 -0.3630359692530087   28   28   17   17
 -0.3609071418313426   28   28   18   18
 -0.3596005617898534   28   28   19   19
 -0.3565559329253878   28   28   20   20
 -0.3560950199350545   28   28   21   21
 -0.3553779656762839   28   28   22   22
 -0.3535462994189086   28   28   23   23
 -0.3455094517298341   28   28   24   24
 -0.3450966948139644   28   28   25   25
 -0.3445444296928313   28   28   26   26
 -0.3445021435899436   28   28   27   27
 -0.3423315061025055   28   28   28   28
 -0.5011455947570136   29   29    1    1
 -0.4942617501392471   29   29    2    2
 -0.491654246113098   29   29    3    3
 -0.4885983881167711   29   29    4    4
 -0.4748624209097373   29   29    5    5
 -0.4314723638387   29   29    6    6
 -0.4287371360037338   29   29    7    7
 -0.4280084295104273   29   29    8    8
 -0.3879849390131045   29   29    9    9
 -0.3871895612618887   29   29   10   10
 -0.3840774799644742   29   29   11   11
 -0.3820304143022227   29   29   12   12
 -0.3664437393650271   29   29   13   13
 -0.3659288895220262   29   29   14   14
 -0.3649388578898172   29   29   15   15
 -0.3647796352484589   29   29   16   16
 -0.3598184976404122   29   29   17   17
 -0.3577085373348928   29   29   18   18
 -0.3564135370941648   29   29   19   19
 -0.3533958918009483   29   29   20   20
 -0.3529390637349416   29   29   21   21
 -0.3522283644985866   29   29   22   22
 -0.3504129317130598   29   29   23   23
 -0.3424473120330104   29   29   24   24
 -0.3420382132495909   29   29   25   25
 -0.3414908426774842   29   29   26   26
 -0.3414489313427935   29   29   27   27
 -0.3392975315207346   29   29   28   28
 -0.3362904460847149   29   29   29   29
 -0.4987237361703423   30   30    1    1
 -0.4918731587275669   30   30    2    2
 -0.489278255841848   30   30    3    3
 -0.4862371657213749   30   30    4    4
 -0.4725675795630317   30   30    5    5
 -0.4293872112199669   30   30    6    6
 -0.4266652017692145   30   30    7    7
 -0.4259400168554579   30   30    8    8
 -0.3861099456661039   30   30    9    9
 -0.385318411692937   30   30   10   10
 -0.3822213699786124   30   30   11   11
 -0.3801841970573199   30   30   12   12
 -0.36467284698166   30   30   13   13
 -0.364160485225008   30   30   14   14
 -0.3631752380638881   30   30   15   15
 -0.3630167848889786   30   30   16   16
 -0.3580796226961435   30   30   17   17
 -0.3559798590790454   30   30   18   18
 -0.3546911171143265   30   30   19   19
 -0.3516880550285479   30   30   20   20
 -0.3512334346502588   30   30   21   21
 -0.3505261699707793   30   30   22   22
 -0.3487195105268246   30   30   23   23
 -0.3407923858562537   30   30   24   24
 -0.3403852641018888   30   30   25   25
 -0.3398405387772591   30   30   26   26
 -0.3397988299851565   30   30   27   27
 -0.3376578271139776   30   30   28   28
 -0.3346652738533583   30   30   29   29
 -0.333047955501921   30   30   30   30
 -0.4958522392169921   31   31    1    1
 -0.4890411052793658   31   31    2    2
 -0.4864611430415251   31   31    3    3
 -0.4834375625769646   31   31    4    4
 -0.4698466816659566   31   31    5    5
 -0.4269149325225589   31   31    6    6
 -0.4242085955599557   31   31    7    7
 -0.4234875860365394   31   31    8    8
 -0.38388684407252   31   31    9    9
 -0.3830998675070471   31   31   10   10
 -0.3800206576005996   31   31   11   11
 -0.3779952140906278   31   31   12   12
 -0.362573173569044   31   31   13   13
 -0.3620637618328473   31   31   14   14
 -0.3610841874200172   31   31   15   15
 -0.3609266465694589   31   31   16   16
 -0.3560179110288296   31   31   17   17
 -0.3539302372009113   31   31   18   18
 -0.3526489154136513   31   31   19   19
 -0.3496631440301285   31   31   20   20
 -0.3492111412153049   31   31   21   21
 -0.3485079487470019   31   31   22   22
 -0.3467116914890929   31   31   23   23
 -0.3388302087494939   31   31   24   24
 -0.3384254310762154   31   31   25   25
 -0.3378838421114512   31   31   26   26
 -0.3378423734656676   31   31   27   27
 -0.3357136978265329   31   31   28   28
 -0.3327383747616057   31   31   29   29
 -0.3311303684287911   31   31   30   30
 -0.3292238222286715   31   31   31   31
 -0.4944130265346297   32   32    1    1
 -0.4876216619346589   32   32    2    2
 -0.48504918804532   32   32    3    3
 -0.4820343835325584   32   32    4    4
 -0.4684829501960991   32   32    5    5
 -0.4256758105894874   32   32    6    6
 -0.4229773287784219   32   32    7    7
 -0.4222584119874127   32   32    8    8
 -0.3827726113013749   32   32    9    9
 -0.3819879189378561   32   32   10   10
 -0.3789176464478373   32   32   11   11
 -0.3768980817940173   32   32   12   12
 -0.3615208037935057   32   32   13   13
 -0.3610128706264739   32   32   14   14
 -0.360036139431455   32   32   15   15
 -0.3598790558437105   32   32   16   16
 -0.3549845679234118   32   32   17   17
 -0.3529029535753388   32   32   18   18
 -0.3516253508285924   32   32   19   19
 -0.3486482456558919   32   32   20   20
 -0.3481975547806587   32   32   21   21
 -0.3474964033307044   32   32   22   22
 -0.3457053597151305   32   32   23   23
 -0.3378467530039479   32   32   24   24
 -0.337443150199138   32   32   25   25
 -0.3369031331980458   32   32   26   26
 -0.3368617849151369   32   32   27   27
 -0.3347392877637334   32   32   28   28
 -0.331772600583351   32   32   29   29
 -0.3301692614939699   32   32   30   30
 -0.3282682490501868   32   32   31   31
 -0.3273154494258552   32   32   32   32
 -0.4941492689787093   33   33    1    1
 -0.4873615274097512   33   33    2    2
 -0.4847904258738685   33   33    3    3
 -0.4817772296873993   33   33    4    4
 -0.4682330257173688   33   33    5    5
 -0.4254487226986151   33   33    6    6
 -0.4227516804632262   33   33    7    7
 -0.422033147197176   33   33    8    8
 -0.3825684112439093   33   33    9    9
 -0.3817841374950484   33   33   10   10
 -0.3787155029221647   33   33   11   11
 -0.3766970156579128   33   33   12   12
 -0.3613279410684045   33   33   13   13
 -0.3608202788716012   33   33   14   14
 -0.3598440687393759   33   33   15   15
 -0.3596870689519783   33   33   16   16
 -0.3547951921242319   33   33   17   17
 -0.3527146882677587   33   33   18   18
 -0.3514377670916018   33   33   19   19
 -0.348462250133495   33   33   20   20
 -0.348011799691093   33   33   21   21
 -0.3473110222887119   33   33   22   22
 -0.3455209341521834   33   33   23   23
 -0.3376665198202219   33   33   24   24
 -0.3372631323278807   33   33   25   25
 -0.3367234034129771   33   33   26   26
 -0.3366820771883908   33   33   27   27
 -0.3345607123385874   33   33   28   28
 -0.3315956078150484   33   33   29   29
 -0.3299931240688254   33   33   30   30
 -0.3280931257698343   33   33   31   31
 -0.3271408344413742   33   33   32   32
 -0.3269663126098221   33   33   33   33
 -0.4932928180264634   34   34    1    1
 -0.4865168408536005   34   34    2    2
 -0.4839501955063574   34   34    3    3
 -0.4809422217393172   34   34    4    4
 -0.467421492348965   34   34    5    5
 -0.424711342342999   34   34    6    6
 -0.4220189745744882   34   34    7    7
 -0.4213016866578467   34   34    8    8
 -0.3819053503012386   34   34    9    9
 -0.3811224358420523   34   34   10   10
 -0.3780591197734486   34   34   11   11
 -0.3760441309163545   34   34   12   12
 -0.3607016937406676   34   34   13   13
 -0.3601949114151889   34   34   14   14
 -0.3592203932334527   34   34   15   15
 -0.3590636655553667   34   34   16   16
 -0.3541802672437903   34   34   17   17
 -0.3521033692805581   34   34   18   18
 -0.3508286612420619   34   34   19   19
 -0.3478583013983985   34   34   20   20
 -0.3474086316688995   34   34   21   21
 -0.3467090688417718   34   34   22   22
 -0.3449220832549897   34   34   23   23
 -0.3370812820578768   34   34   24   24
 -0.336678593709749   34   34   25   25
 -0.3361398002436503   34   34   26   26
 -0.3360985456449605   34   34   27   27
 -0.3339808575079638   34   34   28   28
 -0.3310208920522169   34   34   29   29
 -0.3294211857030611   34   34   30   30
 -0.3275244804482058   34   34   31   31
 -0.3265738396145784   34   34   32   32
 -0.3263996202612414   34   34   33   33
 -0.3258339100940217   34   34   34   34
 -0.4932106999163653   35   35    1    1
 -0.486435850735679   35   35    2    2
 -0.4838696326560902   35   35    3    3
 -0.4808621596243374   35   35    4    4
 -0.4673436810203418   35   35    5    5
 -0.4246406409431489   35   35    6    6
 -0.4219487213712159   35   35    7    7
 -0.4212315528609918   35   35    8    8
 -0.3818417747849184   35   35    9    9
 -0.3810589906569541   35   35   10   10
 -0.377996184536432   35   35   11   11
 -0.3759815311131223   35   35   12   12
 -0.3606416479822119   35   35   13   13
 -0.3601349500204322   35   35   14   14
 -0.3591605940660554   35   35   15   15
 -0.3590038924783164   35   35   16   16
 -0.3541213071026383   35   35   17   17
 -0.3520447548791561   35   35   18   18
 -0.3507702590404149   35   35   19   19
 -0.3478003936704753   35   35   20   20
 -0.3473507987971814   35   35   21   21
 -0.3466513524257879   35   35   22   22
 -0.3448646643172454   35   35   23   23
 -0.337025168372819   35   35   24   24
 -0.3366225470599387   35   35   25   25
 -0.336083843286411   35   35   26   26
 -0.3360425955553454   35   35   27   27
 -0.3339252599484104   35   35   28   28
 -0.3309657872360409   35   35   29   29
 -0.3293663471888812   35   35   30   30
 -0.3274699576772219   35   35   31   31
 -0.3265194750961087   35   35   32   32
 -0.3263452847449454   35   35   33   33
 -0.3257796687511013   35   35   34   34
 -0.3257254364376992   35   35   35   35
 -0.4930045281471739   36   36    1    1
 -0.4862325109866401   36   36    2    2
 -0.4836673656366609   36   36    3    3
 -0.4806611497877629   36   36    4    4
 -0.4671483221735999   36   36    5    5
 -0.4244631328067101   36   36    6    6
 -0.4217723385100818   36   36    7    7
 -0.4210554697903948   36   36    8    8
 -0.3816821574159684   36   36    9    9
 -0.3808997005071594   36   36   10   10
 -0.377838174699811   36   36   11   11
 -0.3758243634412408   36   36   12   12
 -0.3604908926830645   36   36   13   13
 -0.3599844065309945   36   36   14   14
 -0.3590104578765628   36   36   15   15
 -0.3588538217931682   36   36   16   16
 -0.3539732774341698   36   36   17   17
 -0.3518975932503425   36   36   18   18
 -0.3506236301759187   36   36   19   19
 -0.3476550062680919   36   36   20   20
 -0.3472055993342942   36   36   21   21
 -0.3465064453452351   36   36   22   22
 -0.3447205041074487   36   36   23   23
 -0.3368842852264531   36   36   24   24
 -0.3364818322171972   36   36   25   25
 -0.335943353632438   36   36   26   26
 -0.335902123143735   36   36   27   27
 -0.3337856726247109   36   36   28   28
 -0.330827437030119   36   36   29   29
 -0.3292286655803443   36   36   30   30
 -0.3273330687967844   36   36   31   31
 -0.3263829835360767   36   36   32   32
 -0.3262088659999049   36   36   33   33
 -0.3256434864446663   36   36   34   34
 -0.3255892768014374   36   36   35   35
 -0.3254531740825805   36   36   36   36
 -0.489284339409669   37   37    1    1
 -0.482563423568763   37   37    2    2
 -0.4800176346836766   37   37    3    3
 -0.4770341035966927   37   37    4    4
 -0.4636232431374583   37   37    5    5
 -0.4212601541807569   37   37    6    6
 -0.418589664490001   37   37    7    7
 -0.4178782052276007   37   37    8    8
 -0.3788020019969872   37   37    9    9
 -0.3780254494708227   37   37   10   10
 -0.3749870257917061   37   37   11   11
 -0.372988410657179   37   37   12   12
 -0.3577706455405631   37   37   13   13
 -0.357267981308924   37   37   14   14
 -0.3563013820247481   37   37   15   15
 -0.356145927909794   37   37   16   16
 -0.3513022119065625   37   37   17   17
 -0.3492421907369315   37   37   18   18
 -0.3479778409273175   37   37   19   19
 -0.3450316181144042   37   37   20   20
 -0.3445856023839691   37   37   21   21
 -0.3438917241776815   37   37   22   22
 -0.3421192595675919   37   37   23   23
 -0.3343421724218266   37   37   24   24
 -0.3339427563038505   37   37   25   25
 -0.3334083410528986   37   37   26   26
 -0.3333674216875036   37   37   27   27
 -0.3312669418035039   37   37   28   28
 -0.3283310289141075   37   37   29   29
 -0.3267443217177052   37   37   30   30
 -0.3248630290173786   37   37   31   31
 -0.3239201130548919   37   37   32   32
 -0.3237473094013724   37   37   33   33
 -0.3231861961733858   37   37   34   34
 -0.3231323955935483   37   37   35   35
 -0.3229973198993391   37   37   36   36
 -0.3205599974750407   37   37   37   37
 -0.4887067446802242   38   38    1    1
 -0.4819937628058364   38   38    2    2
 -0.4794509791962593   38   38    3    3
 -0.4764709701345932   38   38    4    4
 -0.4630759410472107   38   38    5    5
 -0.4207628612466044   38   38    6    6
 -0.4180955240392741   38   38    7    7
 -0.4173849046466327   38   38    8    8
 -0.3783548304400136   38   38    9    9
 -0.3775791946254831   38   38   10   10
 -0.3745443577717796   38   38   11   11
 -0.3725481019802255   38   38   12   12
 -0.3573483012663449   38   38   13   13
 -0.3568462304242495   38   38   14   14
 -0.3558807721997949   38   38   15   15
 -0.3557255015966974   38   38   16   16
 -0.3508875035464208   38   38   17   17
 -0.3488299142089054   38   38   18   18
 -0.3475670569502017   38   38   19   19
 -0.3446243121206028   38   38   20   20
 -0.3441788229067848   38   38   21   21
 -0.3434857638160146   38   38   22   22
 -0.341715391580715   38   38   23   23
 -0.333947485199965   38   38   24   24
 -0.3335485405882809   38   38   25   25
 -0.3330147562085983   38   38   26   26