 &FCI NORB=  56,NELEC=77,MS2=1,
  ORBSYM=1,1,1,1,1,1,1,1,1,1,1,1,1,1,1,1,1,1,1,1,1,1,1,1,1,1,1,1,1,1,1,1,1,1,1,1,1,1,1,1,1,1,1,1,1,1,1,1,1,1,1,1,1,1,1,1,
  ISYM=1,
 &END
 -0.3012354049442008    1    1    1    1
 -0.3026084662627453    2    2    1    1
 -0.3039877861330854    2    2    2    2
 -0.3070033478630367    3    3    1    1
 -0.3084027000463981    3    3    2    2
 -0.312881733196572    3    3    3    3
 -0.3076494308901763    4    4    1    1
 -0.309051727985054    4    4    2    2
 -0.313540187179981    4    4    3    3
 -0.3142000268679623    4    4    4    4
 -0.3077958394416622    5    5    1    1
 -0.309198803881465    5    5    2    2
 -0.3136893991076768    5    5    3    3
 -0.3143495528094778    5    5    4    4
 -0.3144991499095079    5    5    5    5
 -0.3087718071001399    6    6    1    1
 -0.3101792200988371    6    6    2    2
 -0.3146840542300194    6    6    3    3
 -0.3153463011656462    6    6    4    4
 -0.3154963726123462    6    6    5    5
 -0.3164967573368285    6    6    6    6
 -0.3096741643509309    7    7    1    1
 -0.3110856903848698    7    7    2    2
 -0.3156036894801078    7    7    3    3
 -0.3162678717715878    7    7    4    4
 -0.3164183817883092    7    7    5    5
 -0.3174216900452805    7    7    6    6
 -0.3183493257846334    7    7    7    7
 -0.3123260087772659    8    8    1    1
 -0.3137496221852147    8    8    2    2
 -0.3183063104321421    8    8    3    3
 -0.3189761803408357    8    8    4    4
 -0.3191279792256478    8    8    5    5
 -0.320139879149976    8    8    6    6
 -0.3210754585473679    8    8    7    7
 -0.3238249361053888    8    8    8    8
 -0.3135859058725302    9    9    1    1
 -0.3150152620183461    9    9    2    2
 -0.3195903315659817    9    9    3    3
 -0.320262903674071    9    9    4    4
 -0.320415314902936    9    9    5    5
 -0.3214312967472437    9    9    6    6
 -0.3223706501939688    9    9    7    7
 -0.3251312189153623    9    9    8    8
 -0.3264427711613469    9    9    9    9
 -0.3145435931105797   10   10    1    1
 -0.3159773144912924   10   10    2    2
 -0.3205663562412397   10   10    3    3
 -0.3212409823757139   10   10    4    4
 -0.3213938590664702   10   10    5    5
 -0.322412943705987   10   10    6    6
 -0.3233551659258013   10   10    7    7
 -0.326124165387814   10   10    8    8
 -0.3274397230971325   10   10    9    9
 -0.3284397197110366   10   10   10   10
 -0.3178166560928714   11   11    1    1
 -0.3192652964243461   11   11    2    2
 -0.3239020906099016   11   11    3    3
 -0.3245837367373942   11   11    4    4
 -0.3247382042252556   11   11    5    5
 -0.325767893207962   11   11    6    6
 -0.3267199199596005   11   11    7    7
 -0.3295177329464651   11   11    8    8
 -0.3308469800245508   11   11    9    9
 -0.331857382356362   11   11   10   10
 -0.3353106083554971   11   11   11   11
 -0.3193546686528256   12   12    1    1
 -0.3208103194004694   12   12    2    2
 -0.3254695524593771   12   12    3    3
 -0.3261544972821565   12   12    4    4
 -0.3263097122857062   12   12    5    5
 -0.3273443842501346   12   12    6    6
 -0.3283010181520699   12   12    7    7
 -0.3311123706165915   12   12    8    8
 -0.3324480503301675   12   12    9    9
 -0.3334633423096643   12   12   10   10
 -0.3369332795316294   12   12   11   11
 -0.3385638033127203   12   12   12   12
 -0.3201639614261507   13   13    1    1
 -0.3216233010117736   13   13    2    2
 -0.3262943412681766   13   13    3    3
 -0.3269810218441783   13   13    4    4
 -0.3271366301858973   13   13    5    5
 -0.3281739241647371   13   13    6    6
 -0.3291329823208937   13   13    7    7
 -0.3319514591754936   13   13    8    8
 -0.3332905237024003   13   13    9    9
 -0.3343083885845113   13   13   10   10
 -0.3377871191494059   13   13   11   11
 -0.3394217749230501   13   13   12   12
 -0.3402819207625119   13   13   13   13
 -0.3202936986099974   14   14    1    1
 -0.3217536295507725   14   14    2    2
 -0.3264265626111182   14   14    3    3
 -0.3271135214445594   14   14    4    4
 -0.3272691928420575   14   14    5    5
 -0.328306907154276   14   14    6    6
 -0.3292663539410072   14   14    7    7
 -0.3320859729018212   14   14    8    8
 -0.3334255800458917   14   14    9    9
 -0.334443857388302   14   14   10   10
 -0.3379239976081273   14   14   11   11
 -0.3395593157787374   14   14   12   12
 -0.3404198101674188   14   14   13   13
 -0.3405577554480182   14   14   14   14
 -0.3232824578238938   15   15    1    1
 -0.3247560118302172   15   15    2    2
 -0.3294725494691126   15   15    3    3
 -0.3301659185271444   15   15    4    4
 -0.3303230425424293   15   15    5    5
 -0.331370440086711   15   15    6    6
 -0.3323388397671037   15   15    7    7
 -0.3351847694614269   15   15    8    8
 -0.3365368768926158   15   15    9    9
 -0.3375646560947337   15   15   10   10
 -0.3410772705755039   15   15   11   11
 -0.342727848403957   15   15   12   12
 -0.3435963723309772   15   15   13   13
 -0.3437356048215037   15   15   14   14
 -0.346943107686883   15   15   15   15
 -0.3263578696209387   16   16    1    1
 -0.3278454416640129   16   16    2    2
 -0.3326068481015233   16   16    3    3
 -0.3333068132346874   16   16    4    4
 -0.3334654319832575   16   16    5    5
 -0.3345227935038884   16   16    6    6
 -0.3355004056476526   16   16    7    7
 -0.3383734088980679   16   16    8    8
 -0.339738379035055   16   16    9    9
 -0.340775935582669   16   16   10   10
 -0.3443219658450604   16   16   11   11
 -0.3459882457519986   16   16   12   12
 -0.3468650320163851   16   16   13   13
 -0.3470055890366952   16   16   14   14
 -0.3502436051325715   16   16   15   15
 -0.3535755004736143   16   16   16   16
 -0.3265739704309228   17   17    1    1
 -0.3280625274832563   17   17    2    2
 -0.332827086729029   17   17    3    3
 -0.3335275153504259   17   17    4    4
 -0.3336862391298324   17   17    5    5
 -0.334744300791941   17   17    6    6
 -0.3357225602704128   17   17    7    7
 -0.33859746590587   17   17    8    8
 -0.3399633398701574   17   17    9    9
 -0.3410015834452073   17   17   10   10
 -0.3445499617435533   17   17   11   11
 -0.3462173449927763   17   17   12   12
 -0.3470947118291041   17   17   13   13
 -0.3472353619205142   17   17   14   14
 -0.3504755220979838   17   17   15   15
 -0.3538096236836096   17   17   16   16
 -0.3540439019204022   17   17   17   17
 -0.3270341141851197   18   18    1    1
 -0.3285247686190341   18   18    2    2
 -0.3332960411438093   18   18    3    3
 -0.3339974566713426   18   18    4    4
 -0.3341564040930549   18   18    5    5
 -0.3352159565673819   18   18    6    6
 -0.3361955944165438   18   18    7    7
 -0.3390745508031076   18   18    8    8
 -0.340442349288118   18   18    9    9
 -0.3414820557516392   18   18   10   10
 -0.3450354337261974   18   18   11   11
 -0.3467051663236768   18   18   12   12
 -0.3475837693726438   18   18   13   13
 -0.3477246176404762   18   18   14   14
 -0.3509693432138538   18   18   15   15
 -0.3543081425591279   18   18   16   16
 -0.3545427508946949   18   18   17   17
 -0.3550423027487656   18   18   18   18
 -0.3274016565707735   19   19    1    1
 -0.3288939862999035   19   19    2    2
 -0.3336706210936601   19   19    3    3
 -0.3343728249179647   19   19    4    4
 -0.3345319509752138   19   19    5    5
 -0.335592694244101   19   19    6    6
 -0.3365734330745262   19   19    7    7
 -0.3394556250210899   19   19    8    8
 -0.3408249607277432   19   19    9    9
 -0.341865835681576   19   19   10   10
 -0.3454232071753461   19   19   11   11
 -0.3470948163278258   19   19   12   12
 -0.3479744068085213   19   19   13   13
 -0.3481154133708745   19   19   14   14
 -0.3513637855796528   19   19   15   15
 -0.3547063372866022   19   19   16   16
 -0.3549412092904033   19   19   17   17
 -0.3554413225736101   19   19   18   18
 -0.3558407908431029   19   19   19   19
 -0.328132140442463   20   20    1    1
 -0.3296277997906603   20   20    2    2
 -0.3344150919974377   20   20    3    3
 -0.3351188625473773   20   20    4    4
 -0.3352783436395386   20   20    5    5
 -0.3363414535911667   20   20    6    6
 -0.3373243806020227   20   20    7    7
 -0.340213003165811   20   20    8    8
 -0.3415853940727926   20   20    9    9
 -0.342628591380074   20   20   10   10
 -0.3461938999213502   20   20   11   11
 -0.3478692386930947   20   20   12   12
 -0.3487507916765661   20   20   13   13
 -0.3488921128464282   20   20   14   14
 -0.352147732677386   20   20   15   15
 -0.3554977421355814   20   20   16   16
 -0.3557331381752486   20   20   17   17
 -0.3562343672887515   20   20   18   18
 -0.3566347268339061   20   20   19   19
 -0.3574304342190342   20   20   20   20
 -0.3298856736971532   21   21    1    1
 -0.331389325826555   21   21    2    2
 -0.3362022012513409   21   21    3    3
 -0.3369097327405817   21   21    4    4
 -0.3370700660973162   21   21    5    5
 -0.3381388572926378   21   21    6    6
 -0.3391270370507504   21   21    7    7
 -0.34203109637035   21   21    8    8
 -0.3434108213138285   21   21    9    9
 -0.3444595934519297   21   21   10   10
 -0.3480439549487681   21   21   11   11
 -0.3497282467058713   21   21   12   12
 -0.3506145106953119   21   21   13   13
 -0.3507565870833937   21   21   14   14
 -0.3540296048980739   21   21   15   15
 -0.357397516756749   21   21   16   16
 -0.3576341707493343   21   21   17   17
 -0.3581380784237291   21   21   18   18
 -0.3585405774843097   21   21   19   19
 -0.3593405371178123   21   21   20   20
 -0.3612608475779356   21   21   21   21
 -0.3302153414733954   22   22    1    1
 -0.3317204962617281   22   22    2    2
 -0.3365381813829182   22   22    3    3
 -0.3372464199363067   22   22    4    4
 -0.3374069135204938   22   22    5    5
 -0.3384767728010484   22   22    6    6
 -0.3394659400862025   22   22    7    7
 -0.3423729015469203   22   22    8    8
 -0.3437540053040007   22   22    9    9
 -0.3448038255215007   22   22   10   10
 -0.3483917690122785   22   22   11   11
 -0.3500777439486235   22   22   12   12
 -0.3509648936166547   22   22   13   13
 -0.3511071119872798   22   22   14   14
 -0.3543834006578673   22   22   15   15
 -0.3577546782038139   22   22   16   16
 -0.3579915686940762   22   22   17   17
 -0.3584959799433021   22   22   18   18
 -0.358898881237083   22   22   19   19
 -0.3596996403018265   22   22   20   20
 -0.3616218698039985   22   22   21   21
 -0.3619832528138234   22   22   22   22
 -0.3302653781209796   23   23    1    1
 -0.3317707609813921   23   23    2    2
 -0.3365891761135246   23   23    3    3
 -0.3372975219844069   23   23    4    4
 -0.3374580398877576   23   23    5    5
 -0.3385280612812279   23   23    6    6
 -0.3395173784522553   23   23    7    7
 -0.3424247803970691   23   23    8    8
 -0.3438060934291082   23   23    9    9
 -0.3448560727230582   23   23   10   10
 -0.3484445598853178   23   23   11   11
 -0.350130790292936   23   23   12   12
 -0.3510180743883839   23   23   13   13
 -0.3511603143089783   23   23   14   14
 -0.3544370994268262   23   23   15   15
 -0.3578088878134433   23   23   16   16
 -0.358045814199088   23   23   17   17
 -0.3585503018804017   23   23   18   18
 -0.3589532642247381   23   23   19   19
 -0.3597541446263611   23   23   20   20
 -0.3616766653988289   23   23   21   21
 -0.3620381031680548   23   23   22   22
 -0.3620929618336138   23   23   23   23
 -0.3317482904903004   24   24    1    1
 -0.3332604326146629   24   24    2    2
 -0.3381004827345153   24   24    3    3
 -0.3388120091230155   24   24    4    4
 -0.3389732477618721   24   24    5    5
 -0.3400480736188584   24   24    6    6
 -0.3410418328863551   24   24    7    7
 -0.3439622892491981   24   24    8    8
 -0.3453498044638359   24   24    9    9
 -0.3464044982310116   24   24   10   10
 -0.3500090979268657   24   24   11   11
 -0.3517028996153224   24   24   12   12
 -0.3525941676722975   24   24   13   13
 -0.352737046259103   24   24   14   14
 -0.3560285443487147   24   24   15   15
 -0.3594154722777619   24   24   16   16
 -0.3596534624778152   24   24   17   17
 -0.3601602153406232   24   24   18   18
 -0.3605649870112904   24   24   19   19
 -0.3613694634164082   24   24   20   20
 -0.3633006164283495   24   24   21   21
 -0.3636636770759462   24   24   22   22
 -0.363718782060372   24   24   23   23
 -0.3653519023224481   24   24   24   24
 -0.3324530647697491   25   25    1    1
 -0.3339684193262677   25   25    2    2
 -0.3388187517683912   25   25    3    3
 -0.3395317897411622   25   25    4    4
 -0.3396933709193741   25   25    5    5
 -0.340770480163014   25   25    6    6
 -0.3417663505972953   25   25    7    7
 -0.3446930112499199   25   25    8    8
 -0.3460834741362222   25   25    9    9
 -0.3471404085209417   25   25   10   10
 -0.3507526659176075   25   25   11   11
 -0.3524500659602945   25   25   12   12
 -0.3533432274491898   25   25   13   13
 -0.3534864095708014   25   25   14   14
 -0.3567849002004228   25   25   15   15
 -0.3601790234029927   25   25   16   16
 -0.3604175191953174   25   25   17   17
 -0.3609253486164499   25   25   18   18
 -0.3613309801940728   25   25   19   19
 -0.3621371656487774   25   25   20   20
 -0.3640724212499754   25   25   21   21
 -0.3644362531925979   25   25   22   22
 -0.3644914752434166   25   25   23   23
 -0.3661280649465989   25   25   24   24
 -0.3669058764698394   25   25   25   25
 -0.3342194905617589   26   26    1    1
 -0.3357428966649658   26   26    2    2
 -0.3406190004210988   26   26    3    3
 -0.3413358269847997   26   26    4    4
 -0.3414982666937063   26   26    5    5
 -0.3425810989513606   26   26    6    6
 -0.3435822607527762   26   26    7    7
 -0.346524471657178   26   26    8    8
 -0.3479223225021592   26   26    9    9
 -0.3489848727056377   26   26   10   10
 -0.3526163231412885   26   26   11   11
 -0.3543227419945462   26   26   12   12
 -0.3552206491262332   26   26   13   13
 -0.3553645920186704   26   26   14   14
 -0.358680608547555   26   26   15   15
 -0.3620927657747786   26   26   16   16
 -0.3623325287688936   26   26   17   17
 -0.3628430564445543   26   26   18   18
 -0.3632508432680049   26   26   19   19
 -0.3640613122349741   26   26   20   20
 -0.3660068504467729   26   26   21   21
 -0.366372615540855   26   26   22   22
 -0.3664281310034819   26   26   23   23
 -0.3680734164131232   26   26   24   24
 -0.3688553606891687   26   26   25   25
 -0.3708152031201407   26   26   26   26
 -0.334273764478035   27   27    1    1
 -0.3357974179672192   27   27    2    2
 -0.3406743135540338   27   27    3    3
 -0.3413912565232286   27   27    4    4
 -0.341553722610726   27   27    5    5
 -0.3426367307095534   27   27    6    6
 -0.3436380550896735   27   27    7    7
 -0.3465807437798202   27   27    8    8
 -0.3479788216218553   27   27    9    9
 -0.3490415443729034   27   27   10   10
 -0.352673584519934   27   27   11   11
 -0.3543802804786166   27   27   12   12
 -0.3552783334214782   27   27   13   13
 -0.3554222996888075   27   27   14   14
 -0.3587388547057471   27   27   15   15
 -0.3621515660333177   27   27   16   16
 -0.3623913679625547   27   27   17   17
 -0.3629019785428249   27   27   18   18
 -0.3633098315867939   27   27   19   19
 -0.3641204321658505   27   27   20   20
 -0.3660662863136765   27   27   21   21
 -0.3664321108043667   27   27   22   22
 -0.3664876352821517   27   27   23   23
 -0.3681331878697557   27   27   24   24
 -0.3689152591257631   27   27   25   25
 -0.3708754198156248   27   27   26   26
 -0.3709356462897006   27   27   27   27
 -0.3353174312713284   28   28    1    1
 -0.3368458418988829   28   28    2    2
 -0.3417379640889167   28   28    3    3
 -0.3424571454915429   28   28    4    4
 -0.3426201188293201   28   28    5    5
 -0.3437065082871105   28   28    6    6
 -0.34471095899396   28   28    7    7
 -0.3476628353224897   28   28    8    8
 -0.3490652782316441   28   28    9    9
 -0.3501313190069095   28   28   10   10
 -0.3537746990797619   28   28   11   11
 -0.3554867236705048   28   28   12   12
 -0.3563875805068654   28   28   13   13
 -0.3565319962644883   28   28   14   14
 -0.3598589062021759   28   28   15   15
 -0.3632822726689354   28   28   16   16
 -0.3635228233057801   28   28   17   17
 -0.3640350281101969   28   28   18   18
 -0.3644441545495794   28   28   19   19
 -0.3652572859790852   28   28   20   20
 -0.3672092154566992   28   28   21   21
 -0.3675761821216001   28   28   22   22
 -0.3676318799574522   28   28   23   23
 -0.3692825702757871   28   28   24   24
 -0.3700670833082264   28   28   25   25
 -0.3720333639956438   28   28   26   26
 -0.3720937785083206   28   28   27   27
 -0.3732555266378116   28   28   28   28
 -0.335943932507086   29   29    1    1
 -0.3374751987903792   29   29    2    2
 -0.3423764613361229   29   29    3    3
 -0.3430969864447288   29   29    4    4
 -0.3432602642790456   29   29    5    5
 -0.3443486835279365   29   29    6    6
 -0.3453550109329544   29   29    7    7
 -0.3483124024956925   29   29    8    8
 -0.3497174657046993   29   29    9    9
 -0.3507854982519419   29   29   10   10
 -0.3544356855525286   29   29   11   11
 -0.3561509088601342   29   29   12   12
 -0.3570534488416838   29   29   13   13
 -0.3571981344231875   29   29   14   14
 -0.3605312603013329   29   29   15   15
 -0.3639610229262453   29   29   16   16
 -0.3642020230037012   29   29   17   17
 -0.3647151848026343   29   29   18   18
 -0.365125075646715   29   29   19   19
 -0.3659397263167909   29   29   20   20
 -0.3678953027453706   29   29   21   21
 -0.3682629550443829   29   29   22   22
 -0.3683187569450994   29   29   23   23
 -0.369972531384413   29   29   24   24
 -0.3707585101873086   29   29   25   25
 -0.3727284646392418   29   29   26   26
 -0.3727889920293397   29   29   27   27
 -0.3739529107487579   29   29   28   28
 -0.3746515978400045   29   29   29   29
 -0.3363365312033366   30   30    1    1
 -0.3378695869910329   30   30    2    2
 -0.3427765773654385   30   30    3    3
 -0.3434979445110359   30   30    4    4
 -0.3436614131589341   30   30    5    5
 -0.3447511043819158   30   30    6    6
 -0.3457586078249238   30   30    7    7
 -0.3487194555241165   30   30    8    8
 -0.3501261607511229   30   30    9    9
 -0.3511954414476696   30   30   10   10
 -0.3548498945159533   30   30   11   11
 -0.3565671223081446   30   30   12   12
 -0.3574707170371855   30   30   13   13
 -0.3576155717045549   30   30   14   14
 -0.3609525928186239   30   30   15   15
 -0.3643863636133667   30   30   16   16
 -0.3646276453339989   30   30   17   17
 -0.3651414068361376   30   30   18   18
 -0.3655517766964928   30   30   19   19
 -0.3663673794027867   30   30   20   20
 -0.3683252412030669   30   30   21   21
 -0.3686933231565522   30   30   22   22
 -0.3687491902697976   30   30   23   23
 -0.3704048973818758   30   30   24   24
 -0.371191794713798   30   30   25   25
 -0.3731640513402153   30   30   26   26
 -0.3732246494652547   30   30   27   27
 -0.3743899283907299   30   30   28   28
 -0.3750894319981108   30   30   29   29
 -0.3755277778282641   30   30   30   30
 -0.3391213208940995   31   31    1    1
 -0.3406670700337123   31   31    2    2
 -0.3456146891681234   31   31    3    3
 -0.346342029068994   31   31    4    4
 -0.3465068511999759   31   31    5    5
 -0.3476055648175009   31   31    6    6
 -0.3486214101589982   31   31    7    7
 -0.3516067730011613   31   31    8    8
 -0.3530251254262882   31   31    9    9
 -0.3541032595228792   31   31   10   10
 -0.3577879706282354   31   31   11   11
 -0.3595194166744928   31   31   12   12
 -0.3604304929615942   31   31   13   13
 -0.3605765469925383   31   31   14   14
 -0.3639411978795703   31   31   15   15
 -0.3674033995125436   31   31   16   16
 -0.3676466789907366   31   31   17   17
 -0.3681646943208182   31   31   18   18
 -0.3685784619499273   31   31   19   19
 -0.3694008176604224   31   31   20   20
 -0.3713748901094176   31   31   21   21
 -0.3717460196974426   31   31   22   22
 -0.3718023493776308   31   31   23   23
 -0.3734717653665894   31   31   24   24
 -0.3742651780287667   31   31   25   25
 -0.3762537644897729   31   31   26   26
 -0.3763148643534528   31   31   27   27
 -0.3774897915223909   31   31   28   28
 -0.3781950868599401   31   31   29   29
 -0.3786370620934902   31   31   30   30
 -0.3817720905225646   31   31   31   31
 -0.340241473976004   32   32    1    1
 -0.3417923288861948   32   32    2    2
 -0.3467562905224778   32   32    3    3
 -0.3474860329028782   32   32    4    4
 -0.3476513994585441   32   32    5    5
 -0.3487537422417068   32   32    6    6
 -0.3497729430262857   32   32    7    7
 -0.3527681668331898   32   32    8    8
 -0.3541912042242635   32   32    9    9
 -0.3552728995101889   32   32   10   10
 -0.3589697816005179   32   32   11   11
 -0.3607069467935979   32   32   12   12
 -0.3616210324606703   32   32   13   13
 -0.3617675689233072   32   32   14   14
 -0.3651433336030394   32   32   15   15
 -0.3686169712489981   32   32   16   16
 -0.3688610543046734   32   32   17   17
 -0.3693807806934019   32   32   18   18
 -0.369795915040132   32   32   19   19
 -0.3706209870772831   32   32   20   20
 -0.3726015800934069   32   32   21   21
 -0.3729739355611575   32   32   22   22
 -0.3730304513041528   32   32   23   23
 -0.3747053815481869   32   32   24   24
 -0.3755014149351138   32   32   25   25
 -0.3774965699045437   32   32   26   26
 -0.3775578715874439   32   32   27   27
 -0.3787366796633266   32   32   28   28
 -0.3794443046649144   32   32   29   29
 -0.3798877397887441   32   32   30   30
 -0.383033123543598   32   32   31   31
 -0.3842983218881836   32   32   32   32
 -0.3403673681725882   33   33    1    1
 -0.3419187969212081   33   33    2    2
 -0.3468845952940734   33   33    3    3
 -0.3476146076895593   33   33    4    4
 -0.3477800354332086   33   33    5    5
 -0.3488827860989185   33   33    6    6
 -0.3499023640023196   33   33    7    7
 -0.3528986960847386   33   33    8    8
 -0.3543222600199369   33   33    9    9
 -0.355404355548541   33   33   10   10
 -0.3591026055379541   33   33   11   11
 -0.3608404135069244   33   33   12   12
 -0.3617548373987268   33   33   13   13
 -0.3619014280819441   33   33   14   14
 -0.3652784418427399   33   33   15   15
 -0.3687533647841553   33   33   16   16
 -0.3689975381540414   33   33   17   17
 -0.3695174568489441   33   33   18   18
 -0.3699327448013016   33   33   19   19
 -0.3707581221268704   33   33   20   20
 -0.3727394479906497   33   33   21   21
 -0.3731119412352324   33   33   22   22
 -0.3731684778898585   33   33   23   23
 -0.3748440278819644   33   33   24   24
 -0.3756403558125943   33   33   25   25
 -0.3776362490178101   33   33   26   26
 -0.3776975733832071   33   33   27   27
 -0.3788768176348853   33   33   28   28
 -0.3795847044678132   33   33   29   29
 -0.3800283036689613   33   33   30   30
 -0.3831748512606519   33   33   31   31
 -0.3844405177466644   33   33   32   32
 -0.3845827662196402   33   33   33   33
 -0.3433471468557683   34   34    1    1
 -0.3449121577357729   34   34    2    2
 -0.3499214296655068   34   34    3    3
 -0.3506578330243397   34   34    4    4
 -0.3508247090209952   34   34    5    5
 -0.3519371138228937   34   34    6    6
 -0.3529656177185799   34   34    7    7
 -0.3559881814768345   34   34    8    8
 -0.3574242081386773   34   34    9    9
 -0.3585157769760966   34   34   10   10
 -0.3622464036488054   34   34   11   11
 -0.3639994254238735   34   34   12   12
 -0.3649218547271077   34   34   13   13
 -0.3650697287524837   34   34   14   14
 -0.3684763069032834   34   34   15   15
 -0.3719816513899899   34   34   16   16
 -0.3722279623989996   34   34   17   17
 -0.3727524327718506   34   34   18   18
 -0.3731713564023122   34   34   19   19
 -0.3740039595726308   34   34   20   20
 -0.3760026311432123   34   34   21   21
 -0.3763783854155363   34   34   22   22
 -0.3764354170257133   34   34   23   23
 -0.3781256357805032   34   34   24   24
 -0.3789289352401761   34   34   25   25
 -0.3809423016833781   34   34   26   26
 -0.381004162918798   34   34   27   27
 -0.3821937309770806   34   34   28   28
 -0.3829078150730016   34   34   29   29
 -0.3833552978057895   34   34   30   30
 -0.3865293921493609   34   34   31   31
 -0.3878061390336949   34   34   32   32
 -0.3879496328345344   34   34   33   33
 -0.3913459750052731   34   34   34   34
 -0.3496182735244927   35   35    1    1
 -0.3512118688315308   35   35    2    2
 -0.356312633523261   35   35    3    3
 -0.3570624870557296   35   35    4    4
 -0.3572324109895023   35   35    5    5
 -0.3583651335120621   35   35    6    6
 -0.3594124227049851   35   35    7    7
 -0.3624901926310086   35   35    8    8
 -0.3639524478640761   35   35    9    9
 -0.365063953859878   35   35   10   10
 -0.3688627192447693   35   35   11   11
 -0.3706477594061998   35   35   12   12
 -0.3715870365879048   35   35   13   13
 -0.3717376114854234   35   35   14   14
 -0.3752064097049965   35   35   15   15
 -0.3787757781962564   35   35   16   16
 -0.3790265879976736   35   35   17   17
 -0.3795606376554329   35   35   18   18
 -0.3799872127930504   35   35   19   19
 -0.3808350231960303   35   35   20   20
 -0.3828701998685271   35   35   21   21
 -0.3832528171733814   35   35   22   22
 -0.3833108904478181   35   35   23   23
 -0.3850319805117369   35   35   24   24
 -0.3858499519810964   35   35   25   25
 -0.3879000919233984   35   35   26   26
 -0.3879630830346503   35   35   27   27
 -0.3891743781759824   35   35   28   28
 -0.3899015047912854   35   35   29   29
 -0.3903571606541695   35   35   30   30
 -0.3935892288235591   35   35   31   31
 -0.3948892950845324   35   35   32   32
 -0.3950354097541035   35   35   33   33
 -0.3984937850366885   35   35   34   34
 -0.4057721475498166   35   35   35   35
 -0.3499661373588226   36   36    1    1
 -0.3515613182642572   36   36    2    2
 -0.3566671581242439   36   36    3    3
 -0.3574177577473627   36   36    4    4
 -0.3575878507523643   36   36    5    5
 -0.3587217003132677   36   36    6    6
 -0.3597700315399226   36   36    7    7
 -0.3628508637911412   36   36    8    8
 -0.3643145739416162   36   36    9    9
 -0.3654271858657029   36   36   10   10
 -0.3692297309531801   36   36   11   11
 -0.3710165471971612   36   36   12   12
 -0.3719567589426081   36   36   13   13
 -0.3721074836594158   36   36   14   14
 -0.3755797332702364   36   36   15   15
 -0.3791526532183379   36   36   16   16
 -0.3794037125709537   36   36   17   17
 -0.379938293598426   36   36   18   18
 -0.3803652931705604   36   36   19   19
 -0.3812139471294981   36   36   20   20
 -0.3832511487658323   36   36   21   21
 -0.383634146767958   36   36   22   22
 -0.3836922778242484   36   36   23   23
 -0.3854150803415319   36   36   24   24
 -0.3862338656776521   36   36   25   25
 -0.3882860454719733   36   36   26   26
 -0.3883490992582372   36   36   27   27
 -0.389561599616242   36   36   28   28
 -0.3902894497093253   36   36   29   29
 -0.3907455589415199   36   36   30   30
 -0.3939808429600551   36   36   31   31
 -0.3952822027633535   36   36   32   32
 -0.3954284628143679   36   36   33   33
 -0.3988902791175671   36   36   34   34
 -0.4061758834692465   36   36   35   35
 -0.4065800210985861   36   36   36   36
 -0.3503224287496685   37   37    1    1
 -0.3519192336671511   37   37    2    2
 -0.3570302716494444   37   37    3    3
 -0.3577816354384499   37   37    4    4
 -0.3579519016107007   37   37    5    5
 -0.3590869055142503   37   37    6    6
 -0.3601363040195671   37   37    7    7
 -0.3632202727856955   37   37    8    8
 -0.364685473101274   37   37    9    9
 -0.3657992177465232   37   37   10   10
 -0.3696056341059131   37   37   11   11
 -0.3713942694608789   37   37   12   12
 -0.3723354384113657   37   37   13   13
 -0.3724863165770739   37   37   14   14
 -0.3759621011946027   37   37   15   15
 -0.3795386586392555   37   37   16   16
 -0.3797899735888459   37   37   17   17
 -0.3803250988593104   37   37   18   18
 -0.3807525331485652   37   37   19   19
 -0.3816020510999498   37   37   20   20
 -0.3836413267581021   37   37   21   21
 -0.3840247146804981   37   37   22   22
 -0.3840829049184997   37   37   23   23
 -0.3858074613760635   37   37   24   24
 -0.3866270802961652   37   37   25   25
 -0.3886813493611762   37   37   26   26
 -0.3887444673408543   37   37   27   27
 -0.3899582021138291   37   37   28   28
 -0.3906867932120964   37   37   29   29
 -0.3911433667971965   37   37   30   30
 -0.3943819445739548   37   37   31   31
 -0.3956846292577055   37   37   32   32
 -0.3958310382122606   37   37   33   33
 -0.3992963789002899   37   37   34   34
 -0.4065894005356162   37   37   35   35
 -0.4069939496069288   37   37   36   36
 -0.4074082995250828   37   37   37   37
 -0.3523376810527024   38   38    1    1
 -0.3539436716931743   38   38    2    2
 -0.3590841112501869   38   38    3    3
 -0.3598397973077139   38   38    4    4
 -0.3600110429470716   38   38    5    5
 -0.3611525760335763   38   38    6    6
 -0.3622080112712891   38   38    7    7
 -0.3653097207660959   38   38    8    8
 -0.366783349740727   38   38    9    9
 -0.3679035012736804   38   38   10   10
 -0.3717318142879947   38   38   11   11
 -0.3735307388828795   38   38   12   12
 -0.374477321968287   38   38   13   13
 -0.3746290680703474   38   38   14   14
 -0.3781248473624402   38   38   15   15
 -0.3817219791838264   38   38   16   16
 -0.3819747398388281   38   38   17   17
 -0.3825129434518286   38   38   18   18
 -0.3829428365843236   38   38   19   19
 -0.3837972414423619   38   38   20   20
 -0.3858482481648976   38   38   21   21
 -0.3862338415509755   38   38   22   22
 -0.3862923665320638   38   38   23   23
 -0.3880268436115679   38   38   24   24
 -0.3888511774422228   38   38   25   25
 -0.3909172638221545   38   38   26   26