 &FCI NORB=  51,NELEC=74,MS2=0,
  ORBSYM=1,1,1,1,1,1,1,1,1,1,1,1,1,1,1,1,1,1,1,1,1,1,1,1,1,1,1,1,1,1,1,1,1,1,1,1,1,1,1,1,1,1,1,1,1,1,1,1,1,1,1,
  ISYM=1,
 &END
 -0.3557913947262689    1    1    1    1
 -0.3605627670482653    2    2    1    1
 -0.3653981262855514    2    2    2    2
 -0.3621810787903423    3    3    1    1
 -0.3670381405419919    3    3    2    2
 -0.368685515664753    3    3    3    3
 -0.3638106788658104    4    4    1    1
 -0.3686895945150284    4    4    2    2
 -0.3703443818489224    4    4    3    3
 -0.3720107119471868    4    4    4    4
 -0.3649269933928173    5    5    1    1
 -0.369820879477846    5    5    2    2
 -0.3714807443513706    5    5    3    3
 -0.3731521874070151    5    5    4    4
 -0.3742971653633672    5    5    5    5
 -0.3651004818048968    6    6    1    1
 -0.3699966944717931    6    6    2    2
 -0.3716573484547187    6    6    3    3
 -0.3733295861240993    6    6    4    4
 -0.3744751084096216    6    6    5    5
 -0.3746531360510336    6    6    6    6
 -0.365469698925662    7    7    1    1
 -0.3703708630117802    7    7    2    2
 -0.3720331963731582    7    7    3    3
 -0.3737071251352881    7    7    4    4
 -0.3748538058592708    7    7    5    5
 -0.3750320135356498    7    7    6    6
 -0.3754112741697302    7    7    7    7
 -0.366199525456291    8    8    1    1
 -0.371110476946376    8    8    2    2
 -0.3727761299126173    8    8    3    3
 -0.3744534014351034    8    8    4    4
 -0.3756023720288536    8    8    5    5
 -0.3757809355779371    8    8    6    6
 -0.3761609535784246    8    8    7    7
 -0.3769121300631381    8    8    8    8
 -0.3665217459522752    9    9    1    1
 -0.371437018609142    9    9    2    2
 -0.3731041371904035    9    9    3    3
 -0.3747828845511261    9    9    4    4
 -0.3759328661289133    9    9    5    5
 -0.3761115867968115    9    9    6    6
 -0.376491939176729    9    9    7    7
 -0.377243776624777    9    9    8    8
 -0.3775757150036144    9    9    9    9
 -0.3671059351621618   10   10    1    1
 -0.3720290421406793   10   10    2    2
 -0.3736988178976678   10   10    3    3
 -0.3753802409689181   10   10    4    4
 -0.3765320554715911   10   10    5    5
 -0.3767110609975827   10   10    6    6
 -0.3770920196109877   10   10    7    7
 -0.3778450553926397   10   10    8    8
 -0.3781775228391829   10   10    9    9
 -0.3787802898801679   10   10   10   10
 -0.3681367127710218   11   11    1    1
 -0.3730736430848587   11   11    2    2
 -0.3747481073181078   11   11    3    3
 -0.3764342515695049   11   11    4    4
 -0.3775893001920468   11   11    5    5
 -0.3777688083383188   11   11    6    6
 -0.3781508366255455   11   11    7    7
 -0.378905986817094   11   11    8    8
 -0.3792393877816405   11   11    9    9
 -0.3798438473007624   11   11   10   10
 -0.3809103910287681   11   11   11   11
 -0.3702923557689068   12   12    1    1
 -0.3752581945259738   12   12    2    2
 -0.3769424636685797   12   12    3    3
 -0.378638481222266   12   12    4    4
 -0.3798002932899874   12   12    5    5
 -0.3799808525552192   12   12    6    6
 -0.3803651178282552   12   12    7    7
 -0.3811246898396502   12   12    8    8
 -0.3814600430502775   12   12    9    9
 -0.3820680420124505   12   12   10   10
 -0.3831408309407839   12   12   11   11
 -0.3853843313056471   12   12   12   12
 -0.3721978632026345   13   13    1    1
 -0.3771892559375756   13   13    2    2
 -0.3788821922517329   13   13    3    3
 -0.3805869374337538   13   13    4    4
 -0.3817547281329462   13   13    5    5
 -0.3819362165478533   13   13    6    6
 -0.3823224592323126   13   13    7    7
 -0.383085939966347   13   13    8    8
 -0.3834230188891738   13   13    9    9
 -0.3840341465860455   13   13   10   10
 -0.3851124560368686   13   13   11   11
 -0.3873675013514349   13   13   12   12
 -0.389360876699076   13   13   13   13
 -0.3753834751370191   14   14    1    1
 -0.3804175888057367   14   14    2    2
 -0.3821250148272775   14   14    3    3
 -0.3838443507878433   14   14    4    4
 -0.3850221365148314   14   14    5    5
 -0.3852051782746596   14   14    6    6
 -0.3855947267795624   14   14    7    7
 -0.3863647420845293   14   14    8    8
 -0.3867047060390706   14   14    9    9
 -0.3873210643293364   14   14   10   10
 -0.388408602945061   14   14   11   11
 -0.3906829490132772   14   14   12   12
 -0.3926933855021148   14   14   13   13
 -0.3960544169831804   14   14   14   14
 -0.380122790156902   15   15    1    1
 -0.385220460833592   15   15    2    2
 -0.3869494435573456   15   15    3    3
 -0.3886904865862346   15   15    4    4
 -0.3898831421675339   15   15    5    5
 -0.3900684948776811   15   15    6    6
 -0.390462961534827   15   15    7    7
 -0.3912426984853699   15   15    8    8
 -0.3915869545741757   15   15    9    9
 -0.3922110945498277   15   15   10   10
 -0.3933123636263679   15   15   11   11
 -0.3956154239113662   15   15   12   12
 -0.397651242689194   15   15   13   13
 -0.4010547080759469   15   15   14   14
 -0.4061181291577761   15   15   15   15
 -0.3807772661349776   16   16    1    1
 -0.3858837137203097   16   16    2    2
 -0.3876156733180854   16   16    3    3
 -0.389359713985813   16   16    4    4
 -0.3905544230204917   16   16    5    5
 -0.3907400948614552   16   16    6    6
 -0.3911352406911157   16   16    7    7
 -0.391916320152859   16   16    8    8
 -0.392261168964191   16   16    9    9
 -0.3928863835521305   16   16   10   10
 -0.3939895487374404   16   16   11   11
 -0.3962965743138435   16   16   12   12
 -0.3983358982603176   16   16   13   13
 -0.4017452235596975   16   16   14   14
 -0.4068173625809682   16   16   15   15
 -0.4075177999085048   16   16   16   16
 -0.3846506419803664   17   17    1    1
 -0.3898090338189191   17   17    2    2
 -0.3915586114077564   17   17    3    3
 -0.3933203929586631   17   17    4    4
 -0.3945272549171867   17   17    5    5
 -0.3947148154655072   17   17    6    6
 -0.395113980832173   17   17    7    7
 -0.3959030056588042   17   17    8    8
 -0.3962513623714079   17   17    9    9
 -0.3968829368219192   17   17   10   10
 -0.3979973237207144   17   17   11   11
 -0.4003278170246766   17   17   12   12
 -0.4023878855607512   17   17   13   13
 -0.4058318914974436   17   17   14   14
 -0.4109556257753558   17   17   15   15
 -0.4116631881528022   17   17   16   16
 -0.4158507444783459   17   17   17   17
 -0.3850730494963245   18   18    1    1
 -0.3902371060686514   18   18    2    2
 -0.391988604971644   18   18    3    3
 -0.3937523212385952   18   18    4    4
 -0.3949605085232885   18   18    5    5
 -0.3951482750428896   18   18    6    6
 -0.3955478787565451   18   18    7    7
 -0.3963377700577915   18   18    8    8
 -0.3966865093214107   18   18    9    9
 -0.3973187773410095   18   18   10   10
 -0.3984343880136668   18   18   11   11
 -0.400767440569532   18   18   12   12
 -0.4028297713881511   18   18   13   13
 -0.4062775593905257   18   18   14   14
 -0.4114069203427042   18   18   15   15
 -0.4121152597360544   18   18   16   16
 -0.4163074146637383   18   18   17   17
 -0.4167645863455474   18   18   18   18
 -0.3854450855912732   19   19    1    1
 -0.3906141313869274   19   19    2    2
 -0.3923673224904338   19   19    3    3
 -0.394132742761634   19   19    4    4
 -0.39534209732947   19   19    5    5
 -0.3955300452586057   19   19    6    6
 -0.3959300350470731   19   19    7    7
 -0.3967206894972222   19   19    8    8
 -0.3970697656932596   19   19    9    9
 -0.397702644574941   19   19   10   10
 -0.3988193330883839   19   19   11   11
 -0.4011546397094539   19   19   12   12
 -0.4032189630370405   19   19   13   13
 -0.4066700820998107   19   19   14   14
 -0.4118043987543442   19   19   15   15
 -0.4125134225056938   19   19   16   16
 -0.4167096276595641   19   19   17   17
 -0.4171672410351439   19   19   18   18
 -0.417570284747235   19   19   19   19
 -0.3865832578184186   20   20    1    1
 -0.3917675671745263   20   20    2    2
 -0.3935259352370795   20   20    3    3
 -0.395296568578564   20   20    4    4
 -0.3965094942226268   20   20    5    5
 -0.3966979971390255   20   20    6    6
 -0.3970991680484499   20   20    7    7
 -0.3978921572045535   20   20    8    8
 -0.3982422641799323   20   20    9    9
 -0.3988770118755984   20   20   10   10
 -0.3999969978337354   20   20   11   11
 -0.4023392003298272   20   20   12   12
 -0.4044096193518903   20   20   13   13
 -0.4078709291474437   20   20   14   14
 -0.4130204068115218   20   20   15   15
 -0.4137315242233496   20   20   16   16
 -0.4179401202581625   20   20   17   17
 -0.4183990849101091   20   20   18   18
 -0.4188033187610204   20   20   19   19
 -0.4200399937735423   20   20   20   20
 -0.3886757429474478   21   21    1    1
 -0.3938881137625365   21   21    2    2
 -0.3956559994618414   21   21    3    3
 -0.3974362168291757   21   21    4    4
 -0.398655707757227   21   21    5    5
 -0.3988452309960049   21   21    6    6
 -0.3992485733501186   21   21    7    7
 -0.4000458547718159   21   21    8    8
 -0.4003978567947031   21   21    9    9
 -0.4010360402317962   21   21   10   10
 -0.4021620884130501   21   21   11   11
 -0.4045169687056918   21   21   12   12
 -0.4065985944236657   21   21   13   13
 -0.4100786394829111   21   21   14   14
 -0.4152559900701343   21   21   15   15
 -0.415970956594874   21   21   16   16
 -0.4202023327797293   21   21   17   17
 -0.4206637817004317   21   21   18   18
 -0.4210702035750212   21   21   19   19
 -0.4223135724213313   21   21   20   20
 -0.4245994574207638   21   21   21   21
 -0.3895042875054789   22   22    1    1
 -0.3947277695914704   22   22    2    2
 -0.3964994239130832   22   22    3    3
 -0.3982834361902841   22   22    4    4
 -0.3995055267211929   22   22    5    5
 -0.3996954539688419   22   22    6    6
 -0.4000996561324975   22   22    7    7
 -0.4008986371281845   22   22    8    8
 -0.4012513895178384   22   22    9    9
 -0.401890933377915   22   22   10   10
 -0.4030193819690467   22   22   11   11
 -0.4053792821871319   22   22   12   12
 -0.4074653453306251   22   22   13   13
 -0.4109528088420066   22   22   14   14
 -0.4161411960471095   22   22   15   15
 -0.4168576866742251   22   22   16   16
 -0.421098082932431   22   22   17   17
 -0.4215605155291126   22   22   18   18
 -0.4219678037778933   22   22   19   19
 -0.4232138231278944   22   22   20   20
 -0.4255045809747091   22   22   21   21
 -0.4264116339909595   22   22   22   22
 -0.3910265260854821   23   23    1    1
 -0.3962704222881041   23   23    2    2
 -0.3980490004887223   23   23    3    3
 -0.3998399849415902   23   23    4    4
 -0.401066851577446   23   23    5    5
 -0.4012575210879995   23   23    6    6
 -0.4016633029316417   23   23    7    7
 -0.4024654064595711   23   23    8    8
 -0.4028195374561209   23   23    9    9
 -0.4034615807452632   23   23   10   10
 -0.4045944394752203   23   23   11   11
 -0.4069635625215828   23   23   12   12
 -0.4090577782988189   23   23   13   13
 -0.4125588713174322   23   23   14   14
 -0.4177675354833414   23   23   15   15
 -0.4184868262585165   23   23   16   16
 -0.4227437945930403   23   23   17   17
 -0.4232080344425864   23   23   18   18
 -0.4236169144322167   23   23   19   19
 -0.4248678034044192   23   23   20   20
 -0.4271675138612146   23   23   21   21
 -0.428078111770653   23   23   22   22
 -0.429751102384352   23   23   23   23
 -0.3926287982278346   24   24    1    1
 -0.3978941818443336   24   24    2    2
 -0.3996800479553971   24   24    3    3
 -0.4014783711546283   24   24    4    4
 -0.4027102650050126   24   24    5    5
 -0.402901715803854   24   24    6    6
 -0.4033091603810977   24   24    7    7
 -0.4041145506122362   24   24    8    8
 -0.404470132697632   24   24    9    9
 -0.4051148068263918   24   24   10   10
 -0.4062523075636378   24   24   11   11
 -0.4086311383397981   24   24   12   12
 -0.410733935385506   24   24   13   13
 -0.4142493744994282   24   24   14   14
 -0.419479381712254   24   24   15   15
 -0.4202016198567108   24   24   16   16
 -0.4244760315648123   24   24   17   17
 -0.4249421736857611   24   24   18   18
 -0.4253527291039704   24   24   19   19
 -0.4266087437247406   24   24   20   20
 -0.4289178774859785   24   24   21   21
 -0.4298322066657166   24   24   22   22
 -0.4315120525336654   24   24   23   23
 -0.4332802183606378   24   24   24   24
 -0.3936394022093149   25   25    1    1
 -0.3989183386208989   25   25    2    2
 -0.400708801448786   25   25    3    3
 -0.4025117534286703   25   25    4    4
 -0.403746818103089   25   25    5    5
 -0.4039387616852934   25   25    6    6
 -0.4043472550014828   25   25    7    7
 -0.4051547182608299   25   25    8    8
 -0.4055112155940957   25   25    9    9
 -0.4061575490770452   25   25   10   10
 -0.4072979776758722   25   25   11   11
 -0.4096829314258553   25   25   12   12
 -0.4117911409504141   25   25   13   13
 -0.4153156286027553   25   25   14   14
 -0.4205590975538345   25   25   15   15
 -0.4212831946978035   25   25   16   16
 -0.4255686084962004   25   25   17   17
 -0.4260359504402022   25   25   18   18
 -0.4264475626044834   25   25   19   19
 -0.4277068101347657   25   25   20   20
 -0.4300218874737122   25   25   21   21
 -0.4309385700842572   25   25   22   22
 -0.4326227397790116   25   25   23   23
 -0.4343954567632927   25   25   24   24
 -0.4355135657255578   25   25   25   25
 -0.3952626090537784   26   26    1    1
 -0.4005633136259344   26   26    2    2
 -0.4023611595854406   26   26    3    3
 -0.4041715461970654   26   26    4    4
 -0.40541170376976   26   26    5    5
 -0.4056044388482797   26   26    6    6
 -0.40601461662274   26   26    7    7
 -0.4068254095281588   26   26    8    8
 -0.4071833769096669   26   26    9    9
 -0.4078323756058229   26   26   10   10
 -0.4089775068627092   26   26   11   11
 -0.4113722951801391   26   26   12   12
 -0.4134891980928866   26   26   13   13
 -0.4170282192813738   26   26   14   14
 -0.4222933101398189   26   26   15   15
 -0.4230203931623192   26   26   16   16
 -0.4273234782430366   26   26   17   17
 -0.427792747312824   26   26   18   18
 -0.4282060567962215   26   26   19   19
 -0.4294704969449221   26   26   20   20
 -0.4317951207097622   26   26   21   21
 -0.4327155833420208   26   26   22   22
 -0.4344066978592712   26   26   23   23
 -0.4361867247986177   26   26   24   24
 -0.4373094443819493   26   26   25   25
 -0.4391127285026071   26   26   26   26
 -0.3954070212712963   27   27    1    1
 -0.400709662496412   27   27    2    2
 -0.402508165312691   27   27    3    3
 -0.4043192133629117   27   27    4    4
 -0.4055598240366612   27   27    5    5
 -0.405752629532416   27   27    6    6
 -0.4061629571684636   27   27    7    7
 -0.406974046303272   27   27    8    8
 -0.407332144470901   27   27    9    9
 -0.4079813802836946   27   27   10   10
 -0.4091269299230447   27   27   11   11
 -0.4115225931947036   27   27   12   12
 -0.4136402695341223   27   27   13   13
 -0.4171805837310701   27   27   14   14
 -0.422447598230732   27   27   15   15
 -0.423174946898576   27   27   16   16
 -0.4274796041443413   27   27   17   17
 -0.4279490446651727   27   27   18   18
 -0.4283625051543513   27   27   19   19
 -0.4296274072759316   27   27   20   20
 -0.431952880359845   27   27   21   21
 -0.4328736792901667   27   27   22   22
 -0.4345654116690409   27   27   23   23
 -0.436346088954845   27   27   24   24
 -0.4374692187323639   27   27   25   25
 -0.4392731616966682   27   27   26   26
 -0.4394336535062238   27   27   27   27
 -0.3956573614000246   28   28    1    1
 -0.4009633598338277   28   28    2    2
 -0.4027630013183709   28   28    3    3
 -0.4045751959794954   28   28    4    4
 -0.4058165921087858   28   28    5    5
 -0.4060095196735734   28   28    6    6
 -0.4064201070962907   28   28    7    7
 -0.4072317097479248   28   28    8    8
 -0.4075900346346978   28   28    9    9
 -0.4082396814917274   28   28   10   10
 -0.4093859564015677   28   28   11   11
 -0.4117831364157717   28   28   12   12
 -0.4139021534986241   28   28   13   13
 -0.4174447091396135   28   28   14   14
 -0.4227150582919673   28   28   15   15
 -0.4234428674588649   28   28   16   16
 -0.4277502500696113   28   28   17   17
 -0.4282199878026673   28   28   18   18
 -0.4286337100619878   28   28   19   19
 -0.4298994130185127   28   28   20   20
 -0.4322263584061533   28   28   21   21
 -0.4331477403127761   28   28   22   22
 -0.4348405437614057   28   28   23   23
 -0.4366223484297725   28   28   24   24
 -0.4377461892833168   28   28   25   25
 -0.4395512743601522   28   28   26   26
 -0.4397118677802967   28   28   27   27
 -0.4399902581974157   28   28   28   28
 -0.3961324332519562   29   29    1    1
 -0.4014448026793214   29   29    2    2
 -0.4032466050209502   29   29    3    3
 -0.4050609756119518   29   29    4    4
 -0.4063038623045823   29   29    5    5
 -0.4064970215204509   29   29    6    6
 -0.4069081019417733   29   29    7    7
 -0.407720679097138   29   29    8    8
 -0.4080794342300891   29   29    9    9
 -0.4087298611280469   29   29   10   10
 -0.4098775123877226   29   29   11   11
 -0.4122775707326741   29   29   12   12
 -0.4143991321517831   29   29   13   13
 -0.4179459413935724   29   29   14   14
 -0.4232226187348503   29   29   15   15
 -0.4239513017933585   29   29   16   16
 -0.4282638563443579   29   29   17   17
 -0.4287341580987024   29   29   18   18
 -0.4291483771206744   29   29   19   19
 -0.430415599826119   29   29   20   20
 -0.4327453392127154   29   29   21   21
 -0.4336678274367014   29   29   22   22
 -0.435362663460351   29   29   23   23
 -0.4371466075688652   29   29   24   24
 -0.4382717978353299   29   29   25   25
 -0.4400790503054556   29   29   26   26
 -0.4402398365525786   29   29   27   27
 -0.440518561237334   29   29   28   28
 -0.4410474986188014   29   29   29   29
 -0.3963204545558516   30   30    1    1
 -0.4016353454597299   30   30    2    2
 -0.4034380030133969   30   30    3    3
 -0.4052532347818624   30   30    4    4
 -0.4064967114013884   30   30    5    5
 -0.4066899622988376   30   30    6    6
 -0.4071012378364149   30   30    7    7
 -0.4079142006754638   30   30    8    8
 -0.4082731260888621   30   30    9    9
 -0.4089238617070942   30   30   10   10
 -0.4100720576908776   30   30   11   11
 -0.4124732552056157   30   30   12   12
 -0.4145958236080233   30   30   13   13
 -0.4181443163163565   30   30   14   14
 -0.423423498193165   30   30   15   15
 -0.4241525271156502   30   30   16   16
 -0.4284671285884913   30   30   17   17
 -0.4289376535680545   30   30   18   18
 -0.4293520691959948   30   30   19   19
 -0.4306198933792418   30   30   20   20
 -0.4329507385592559   30   30   21   21
 -0.4338736646353947   30   30   22   22
 -0.4355693051003178   30   30   23   23
 -0.437354095944593   30   30   24   24
 -0.4384798202742226   30   30   25   25
 -0.4402879305432494   30   30   26   26
 -0.4404487931063649   30   30   27   27
 -0.4407276500857124   30   30   28   28
 -0.4412568385233614   30   30   29   29
 -0.4414662777895454   30   30   30   30
 -0.3989086609247509   31   31    1    1
 -0.404258261201636   31   31    2    2
 -0.4060726911725672   31   31    3    3
 -0.4078997774753373   31   31    4    4
 -0.4091513747307509   31   31    5    5
 -0.4093458876705646   31   31    6    6
 -0.4097598490800254   31   31    7    7
 -0.410578121046003   31   31    8    8
 -0.4109393904540911   31   31    9    9
 -0.4115943757597976   31   31   10   10
 -0.4127500701407084   31   31   11   11
 -0.4151669488917522   31   31   12   12
 -0.4173033789179906   31   31   13   13
 -0.4208750453770653   31   31   14   14
 -0.4261887034258683   31   31   15   15
 -0.4269224933372921   31   31   16   16
 -0.4312652717030562   31   31   17   17
 -0.4317388694883121   31   31   18   18
 -0.4321559914947783   31   31   19   19
 -0.4334320953178672   31   31   20   20
 -0.4357781622919383   31   31   21   21
 -0.4367071156198145   31   31   22   22
 -0.4384138296172798   31   31   23   23
 -0.4402102761986668   31   31   24   24
 -0.4413433521722655   31   31   25   25
 -0.4431632704680045   31   31   26   26
 -0.4433251835585545   31   31   27   27
 -0.4436058616384826   31   31   28   28
 -0.4441385059888129   31   31   29   29
 -0.4443493130169591   31   31   30   30
 -0.4472511761651919   31   31   31   31
 -0.4003182637662787   32   32    1    1
 -0.4056867676481491   32   32    2    2
 -0.4075076091761441   32   32    3    3
 -0.4093411517590014   32   32    4    4
 -0.4105971717187092   32   32    5    5
 -0.4107923719988079   32   32    6    6
 -0.4112077962022268   32   32    7    7
 -0.4120289596534024   32   32    8    8
 -0.4123915056604567   32   32    9    9
 -0.4130488054537603   32   32   10   10
 -0.4142085836519528   32   32   11   11
 -0.4166340028020623   32   32   12   12
 -0.4187779822202561   32   32   13   13
 -0.4223622696918154   32   32   14   14
 -0.4276947043384168   32   32   15   15
 -0.4284310872051848   32   32   16   16
 -0.4327892114215764   32   32   17   17
 -0.4332644827347578   32   32   18   18
 -0.4336830787036199   32   32   19   19
 -0.43496369182859   32   32   20   20
 -0.437318048977824   32   32   21   21
 -0.438250284899885   32   32   22   22
 -0.4399630298240665   32   32   23   23
 -0.4417658244155465   32   32   24   24
 -0.4429029042809344   32   32   25   25
 -0.4447292535275458   32   32   26   26
 -0.4448917387619846   32   32   27   27
 -0.4451734086594835   32   32   28   28
 -0.4457079351875233   32   32   29   29
 -0.4459194871335291   32   32   30   30
 -0.4488316044450333   32   32   31   31
 -0.4504176174023017   32   32   32   32
 -0.4005979788089013   33   33    1    1
 -0.4059702338343694   33   33    2    2
 -0.4077923476419771   33   33    3    3
 -0.4096271713790763   33   33    4    4
 -0.4108840689596881   33   33    5    5
 -0.4110794056324014   33   33    6    6
 -0.4114951201058612   33   33    7    7
 -0.4123168573299333   33   33    8    8
 -0.4126796566593589   33   33    9    9
 -0.4133374157288343   33   33   10   10
 -0.4144980043007656   33   33   11   11
 -0.4169251181680099   33   33   12   12
 -0.4190705956524889   33   33   13   13
 -0.4226573875791622   33   33   14   14
 -0.4279935481666447   33   33   15   15
 -0.4287304455674313   33   33   16   16
 -0.4330916149431656   33   33   17   17
 -0.4335672183434578   33   33   18   18
 -0.4339861067985737   33   33   19   19
 -0.4352676147284708   33   33   20   20
 -0.4376236169415701   33   33   21   21
 -0.438556504246379   33   33   22   22
 -0.4402704459196545   33   33   23   23
 -0.4420745001807815   33   33   24   24
 -0.4432123745598645   33   33   25   25
 -0.4450399999345061   33   33   26   26
 -0.4452025987025215   33   33   27   27
 -0.4454844654116939   33   33   28   28
 -0.4460193654303388   33   33   29   29
 -0.4462310651943858   33   33   30   30
 -0.4491452172944361   33   33   31   31
 -0.4507323384491616   33   33   32   32
 -0.4510472794015791   33   33   33   33
 -0.4036730263708916   34   34    1    1
 -0.409086519596731   34   34    2    2
 -0.4109226202113577   34   34    3    3
 -0.4127715283187181   34   34    4    4
 -0.4140380740254947   34   34    5    5
 -0.4142349101305342   34   34    6    6
 -0.4146538156879377   34   34    7    7
 -0.4154818606848423   34   34    8    8
 -0.415847444913974   34   34    9    9
 -0.4165102530364401   34   34   10   10
 -0.4176797504527675   34   34   11   11
 -0.420125495194292   34   34   12   12
 -0.422287441671769   34   34   13   13
 -0.425901766327894   34   34   14   14
 -0.4312788880496631   34   34   15   15
 -0.4320214419806261   34   34   16   16
 -0.4364160883182167   34   34   17   17
 -0.4368953425184477   34   34   18   18
 -0.437317446421446   34   34   19   19
 -0.4386087913900801   34   34   20   20
 -0.4409828786141997   34   34   21   21
 -0.4419229268958082   34   34   22   22
 -0.4436500250312793   34   34   23   23
 -0.4454679274717552   34   34   24   24
 -0.446614536337831   34   34   25   25
 -0.4484561908270708   34   34   26   26
 -0.4486200377265588   34   34   27   27
 -0.4489040680850321   34   34   28   28
 -0.4494430740729661   34   34   29   29
 -0.449656398874776   34   34   30   30
 -0.4525929204244605   34   34   31   31
 -0.4541922245488852   34   34   32   32
 -0.4545095830332403   34   34   33   33
 -0.4579984638043397   34   34   34   34
 -0.4046319949533342   35   35    1    1
 -0.4100583485131214   35   35    2    2
 -0.4118988109817451   35   35    3    3
 -0.4137521113686757   35   35    4    4
 -0.415021665890661   35   35    5    5
 -0.4152189696009856   35   35    6    6
 -0.4156388703134833   35   35    7    7
 -0.4164688824201154   35   35    8    8
 -0.4168353351338052   35   35    9    9
 -0.4174997178280761   35   35   10   10
 -0.4186719935109861   35   35   11   11
 -0.4211235483815374   35   35   12   12
 -0.4232906307948173   35   35   13   13
 -0.4269135416669278   35   35   14   14
 -0.4323034373182347   35   35   15   15
 -0.4330477552657261   35   35   16   16
 -0.4374528415571737   35   35   17   17
 -0.4379332342771745   35   35   18   18
 -0.4383563409332801   35   35   19   19
 -0.4396507536304298   35   35   20   20
 -0.4420304807534556   35   35   21   21
 -0.4429727622206108   35   35   22   22
 -0.4447039632629954   35   35   23   23
 -0.4465261843257534   35   35   24   24
 -0.4476755170842052   35   35   25   25
 -0.4495215466212672   35   35   26   26
 -0.4496857827566433   35   35   27   27
 -0.4499704878597056   35   35   28   28
 -0.4505107743141915   35   35   29   29
 -0.4507246058919547   35   35   30   30
 -0.453668103463627   35   35   31   31
 -0.4552712069065815   35   35   32   32
 -0.4555893193100642   35   35   33   33
 -0.459086488291742   35   35   34   34
 -0.4601770974980434   35   35   35   35
 -0.4050065163191735   36   36    1    1
 -0.4104378924312355   36   36    2    2
 -0.4122800584045898   36   36    3    3
 -0.4141350741788375   36   36    4    4
 -0.4154058037816357   36   36    5    5
 -0.4156032901133447   36   36    6    6
 -0.4160235794797065   36   36    7    7
 -0.4168543598332189   36   36    8    8
 -0.4172211517300988   36   36    9    9
 -0.4178861493671255   36   36   10   10
 -0.4190595100909997   36   36   11   11
 -0.4215133340843341   36   36   12   12
 -0.4236824223169151   36   36   13   13
 -0.4273086865015295   36   36   14   14
 -0.4327035709602125   36   36   15   15
 -0.4334485778373432   36   36   16   16
 -0.4378577414112477   36   36   17   17
 -0.4383385787756164   36   36   18   18
 -0.4387620770529598   36   36   19   19
 -0.4400576878392803   36   36   20   20
 -0.4424396176023928   36   36   21   21
 -0.4433827712312813   36   36   22   22
 -0.4451155746476428   36   36   23   23
 -0.446939482331157   36   36   24   24
 -0.4480898788949427   36   36   25   25
 -0.449937617089531   36   36   26   26
 -0.4501020052394352   36   36   27   27
 -0.450386973861313   36   36   28   28
 -0.4509277603969181   36   36   29   29
 -0.4511417898940144   36   36   30   30
 -0.4540880119233287   36   36   31   31
 -0.4556925991750244   36   36   32   32
 -0.4560110060186239   36   36   33   33
 -0.4595114119279788   36   36   34   34
 -0.4606030305859664   36   36   35   35
 -0.4610293579112305   36   36   36   36
 -0.4052482237147264   37   37    1    1
 -0.4106828412654355   37   37    2    2
 -0.4125261066411986   37   37    3    3
 -0.4143822294866005   37   37    4    4
 -0.4156537174592776   37   37    5    5
 -0.4158513216505887   37   37    6    6
 -0.4162718618451324   37   37    7    7
 -0.4171031380073478   37   37    8    8
 -0.4174701488051848   37   37    9    9
 -0.4181355433119913   37   37   10   10
 -0.4193096042961161   37   37   11   11
 -0.4217648927286203   37   37   12   12
 -0.4239352754704162   37   37   13   13
 -0.4275637038050784   37   37   14   14
 -0.4329618079242342   37   37   15   15
 -0.4337072594205615   37   37   16   16
 -0.4381190543779156   37   37   17   17
 -0.4386001787054376   37   37   18   18
 -0.439023929726037   37   37   19   19
 -0.4403203137312964   37   37   20   20
 -0.4427036650271899   37   37   21   21
 -0.4436473815290151   37   37   22   22
 -0.4453812190803446   37   37   23   23
 -0.4472062152697424   37   37   24   24
 -0.4483572983887958   37   37   25   25
 -0.4502061393112878   37   37   26   26
 -0.4503706255678395   37   37   27   27
 -0.4506557642586438   37   37   28   28
 -0.4511968735349944   37   37   29   29
 -0.4514110307646339   37   37   30   30
 -0.4543590110956662   37   37   31   31
 -0.4559645559630789   37   37   32   32
 -0.4562831528314947   37   37   33   33
 -0.4597856477788323   37   37   34   34
 -0.460877917913505   37   37   35   35
 -0.4613044996703975   37   37   36   36
 -0.4615798056338312   37   37   37   37
 -0.4211599108462216   38   38    1    1
 -0.4268079135003953   38   38    2    2
 -0.4287235529428244   38   38    3    3
 -0.4306525546912428   38   38    4    4
 -0.4319739664331773   38   38    5    5
 -0.4321793293656352   38   38    6    6
 -0.4326163816720407   38   38    7    7
 -0.4334802971043108   38   38    8    8
 -0.4338617182330201   38   38    9    9
 -0.4345532388240182   38   38   10   10
 -0.435773398199103   38   38   11   11
 -0.4383250912031006   38   38   12   12
 -0.4405806919646732   38   38   13   13
 -0.4443515870963789   38   38   14   14
 -0.4499616426537419   38   38   15   15
 -0.4507363635960214   38   38   16   16
 -0.455321383497846   38   38   17   17
 -0.4558213987157479   38   38   18   18
 -0.4562617879182488   38   38   19   19
 -0.4576090732118716   38   38   20   20
 -0.4600860045358205   38   38   21   21
 -0.4610667751709871   38   38   22   22
 -0.4628686902092472   38   38   23   23
 -0.4647653431430366   38   38   24   24
 -0.4659616224489724   38   38   25   25
 -0.4678830563566844   38   38   26   26