 &FCI NORB=  56,NELEC=75,MS2=3,
  ORBSYM=1,1,1,1,1,1,1,1,1,1,1,1,1,1,1,1,1,1,1,1,1,1,1,1,1,1,1,1,1,1,1,1,1,1,1,1,1,1,1,1,1,1,1,1,1,1,1,1,1,1,1,1,1,1,1,1,
  ISYM=1,
 &END
 -0.2970422253088119    1    1    1    1
 -0.2990052744276236    2    2    1    1
 -0.3009812966577123    2    2    2    2
 -0.3008578099091755    3    3    1    1
 -0.3028460749042141    3    3    2    2
 -0.304722406685594    3    3    3    3
 -0.304977026016317    4    4    1    1
 -0.3069925134829786    4    4    2    2
 -0.308894535194424    4    4    3    3
 -0.3131237866975343    4    4    4    4
 -0.3050572746827968    5    5    1    1
 -0.3070732924850827    5    5    2    2
 -0.3089758146758854    5    5    3    3
 -0.3132061790227982    5    5    4    4
 -0.3132885930279714    5    5    5    5
 -0.3056328555988746    6    6    1    1
 -0.3076526772159513    6    6    2    2
 -0.3095587890784527    6    6    3    3
 -0.3137971352608707    6    6    4    4
 -0.3138797047644781    6    6    5    5
 -0.3144719318083814    6    6    6    6
 -0.3068694614695778    7    7    1    1
 -0.3088974553862738    7    7    2    2
 -0.3108112794730214    7    7    3    3
 -0.3150667742167777    7    7    4    4
 -0.3151496778007402    7    7    5    5
 -0.3157443010249816    7    7    6    6
 -0.3170218183112808    7    7    7    7
 -0.3104973101850436    8    8    1    1
 -0.3125492792965681    8    8    2    2
 -0.3144857288482984    8    8    3    3
 -0.3187915325770735    8    8    4    4
 -0.318875416257456    8    8    5    5
 -0.3194770691909748    8    8    6    6
 -0.3207696894445875    8    8    7    7
 -0.3245618683738267    8    8    8    8
 -0.3112635781249471    9    9    1    1
 -0.3133206112357149    9    9    2    2
 -0.3152618396990817    9    9    3    3
 -0.3195782696047821    9    9    4    4
 -0.3196623602994377    9    9    5    5
 -0.3202654980360088    9    9    6    6
 -0.3215613083122927    9    9    7    7
 -0.3253628458576633    9    9    8    8
 -0.3261658000522356    9    9    9    9
 -0.3122261437361085   10   10    1    1
 -0.3142895381093965   10   10    2    2
 -0.3162367697157378   10   10    3    3
 -0.3205665479451171   10   10    4    4
 -0.320650898685652   10   10    5    5
 -0.3212559015927244   10   10    6    6
 -0.3225557190914981   10   10    7    7
 -0.3263690126840514   10   10    8    8
 -0.3271744499706054   10   10    9    9
 -0.3281862190837457   10   10   10   10
 -0.314105728639426   11   11    1    1
 -0.3161815445379176   11   11    2    2
 -0.3181404983757375   11   11    3    3
 -0.3224963416414948   11   11    4    4
 -0.322581200169035   11   11    5    5
 -0.3231898451616706   11   11    6    6
 -0.3244974874931715   11   11    7    7
 -0.3283337369118536   11   11    8    8
 -0.3291440228883548   11   11    9    9
 -0.3301618827981463   11   11   10   10
 -0.3321494399038152   11   11   11   11
 -0.3152238692165759   12   12    1    1
 -0.3173070745186192   12   12    2    2
 -0.319273001759262   12   12    3    3
 -0.3236443507756602   12   12    4    4
 -0.3237295113790759   12   12    5    5
 -0.3243403230009745   12   12    6    6
 -0.3256526202235452   12   12    7    7
 -0.3295025257641889   12   12    8    8
 -0.3303156961631847   12   12    9    9
 -0.3313371794085708   12   12   10   10
 -0.3333318117377921   12   12   11   11
 -0.3345183925301048   12   12   12   12
 -0.3165018622458376   13   13    1    1
 -0.3185935133608871   13   13    2    2
 -0.3205674109411996   13   13    3    3
 -0.3249564824529953   13   13    4    4
 -0.3250419883178843   13   13    5    5
 -0.3256552763163243   13   13    6    6
 -0.3269728939059945   13   13    7    7
 -0.3308384078853535   13   13    8    8
 -0.331654875071817   13   13    9    9
 -0.3326804996548191   13   13   10   10
 -0.3346832187010109   13   13   11   11
 -0.3358746101759188   13   13   12   12
 -0.3372363262527426   13   13   13   13
 -0.3171852139252012   14   14    1    1
 -0.3192813810746651   14   14    2    2
 -0.3212595404505222   14   14    3    3
 -0.3256580883027324   14   14    4    4
 -0.3257437787813104   14   14    5    5
 -0.3263583909153517   14   14    6    6
 -0.3276788533419726   14   14    7    7
 -0.3315527132610699   14   14    8    8
 -0.3323709432625103   14   14    9    9
 -0.3333987822472738   14   14   10   10
 -0.335405825316755   14   14   11   11
 -0.3365997890967968   14   14   12   12
 -0.3379644452225711   14   14   13   13
 -0.3386941362568332   14   14   14   14
 -0.3186239137807983   15   15    1    1
 -0.3207295887989864   15   15    2    2
 -0.3227167207797552   15   15    3    3
 -0.3271352197201056   15   15    4    4
 -0.327221298876572   15   15    5    5
 -0.32783869878996   15   15    6    6
 -0.3291651506165248   15   15    7    7
 -0.3330565817257707   15   15    8    8
 -0.3338785230836466   15   15    9    9
 -0.3349110241766485   15   15   10   10
 -0.3369271708627156   15   15   11   11
 -0.3381265502656884   15   15   12   12
 -0.3394973962467425   15   15   13   13
 -0.3402303970392768   15   15   14   14
 -0.341773626047441   15   15   15   15
 -0.3206499914960818   16   16    1    1
 -0.3227690561596964   16   16    2    2
 -0.3247688239899713   16   16    3    3
 -0.3292154194474093   16   16    4    4
 -0.3293020459672503   16   16    5    5
 -0.3299233718264064   16   16    6    6
 -0.3312582583446876   16   16    7    7
 -0.335174434432292   16   16    8    8
 -0.3360016023817589   16   16    9    9
 -0.3370406689815073   16   16   10   10
 -0.3390696360168787   16   16   11   11
 -0.340276642078666   16   16   12   12
 -0.3416562050466541   16   16   13   13
 -0.3423938668721706   16   16   14   14
 -0.343946909022939   16   16   15   15
 -0.3461340115518829   16   16   16   16
 -0.3224953111390424   17   17    1    1
 -0.3246265708806306   17   17    2    2
 -0.3266378472434375   17   17    3    3
 -0.3311100325657111   17   17    4    4
 -0.3311971576154847   17   17    5    5
 -0.3318220591641559   17   17    6    6
 -0.3331646278666835   17   17    7    7
 -0.3371033412904845   17   17    8    8
 -0.3379352695371778   17   17    9    9
 -0.338980315896969   17   17   10   10
 -0.3410209595043802   17   17   11   11
 -0.3422349118067853   17   17   12   12
 -0.3436224140690538   17   17   13   13
 -0.3443643210899316   17   17   14   14
 -0.3459263008962845   17   17   15   15
 -0.3481259900566485   17   17   16   16
 -0.3501294322668895   17   17   17   17
 -0.3235308078648162   18   18    1    1
 -0.3256689108453848   18   18    2    2
 -0.3276866451938318   18   18    3    3
 -0.3321731902078539   18   18    4    4
 -0.3322605950065126   18   18    5    5
 -0.3328875030448449   18   18    6    6
 -0.334234382586779   18   18    7    7
 -0.3381857427831474   18   18    8    8
 -0.3390203422592999   18   18    9    9
 -0.3400687441472072   18   18   10   10
 -0.3421159400352283   18   18   11   11
 -0.3433337902040238   18   18   12   12
 -0.3447257475823823   18   18   13   13
 -0.3454700367845335   18   18   14   14
 -0.3470370319350459   18   18   15   15
 -0.349243784053675   18   18   16   16
 -0.3512536590949599   18   18   17   17
 -0.3523814956908603   18   18   18   18
 -0.3241154154137227   19   19    1    1
 -0.32625738186297   19   19    2    2
 -0.328278762178673   19   19    3    3
 -0.3327734142045157   19   19    4    4
 -0.332860976940236   19   19    5    5
 -0.333489017776938   19   19    6    6
 -0.3348383310776626   19   19    7    7
 -0.3387968312277638   19   19    8    8
 -0.339632938792612   19   19    9    9
 -0.3406832351018326   19   19   10   10
 -0.3427341301929624   19   19   11   11
 -0.3439541809695048   19   19   12   12
 -0.3453486535605459   19   19   13   13
 -0.3460942876642507   19   19   14   14
 -0.3476641143138717   19   19   15   15
 -0.3498748539474941   19   19   16   16
 -0.3518883607545735   19   19   17   17
 -0.3530182353072059   19   19   18   18
 -0.353656125487199   19   19   19   19
 -0.32488565963109   20   20    1    1
 -0.3270327163574202   20   20    2    2
 -0.3290589003832377   20   20    3    3
 -0.3335642337268065   20   20    4    4
 -0.3336520045510275   20   20    5    5
 -0.3342815378956441   20   20    6    6
 -0.3356340577725384   20   20    7    7
 -0.3396019651020117   20   20    8    8
 -0.3404400596350394   20   20    9    9
 -0.3414928519213727   20   20   10   10
 -0.3435486208630176   20   20   11   11
 -0.3447715710297488   20   20   12   12
 -0.3461693575157744   20   20   13   13
 -0.3469167635819633   20   20   14   14
 -0.3484903208467962   20   20   15   15
 -0.350706314193565   20   20   16   16
 -0.3527246059997559   20   20   17   17
 -0.3538571656432514   20   20   18   18
 -0.3544965717376353   20   20   19   19
 -0.3553390152669221   20   20   20   20
 -0.3259676489260249   21   21    1    1
 -0.3281218561446118   21   21    2    2
 -0.3301547881119297   21   21    3    3
 -0.3346751258802964   21   21    4    4
 -0.3347631890137943   21   21    5    5
 -0.335394818937067   21   21    6    6
 -0.3367518432049204   21   21    7    7
 -0.3407329651319806   21   21    8    8
 -0.3415738508294873   21   21    9    9
 -0.3426301493031508   21   21   10   10
 -0.3446927647149978   21   21   11   11
 -0.345919787757676   21   21   12   12
 -0.3473222293891955   21   21   13   13
 -0.3480721245937586   21   21   14   14
 -0.3496509223857279   21   21   15   15
 -0.3518742958091721   21   21   16   16
 -0.3538993092728558   21   21   17   17
 -0.3550356407584558   21   21   18   18
 -0.3556771763114006   21   21   19   19
 -0.356522425488931   21   21   20   20
 -0.3577097769042605   21   21   21   21
 -0.326927160100188   22   22    1    1
 -0.3290877083955798   22   22    2    2
 -0.3311266244565504   22   22    3    3
 -0.3356602681913651   22   22    4    4
 -0.3357485905455583   22   22    5    5
 -0.3363820797207271   22   22    6    6
 -0.3377430984952529   22   22    7    7
 -0.3417359391649163   22   22    8    8
 -0.3425793000749958   22   22    9    9
 -0.3436387078455239   22   22   10   10
 -0.3457073947265555   22   22   11   11
 -0.3469380296071701   22   22   12   12
 -0.3483445994349108   22   22   13   13
 -0.3490967020144407   22   22   14   14
 -0.3506801471207313   22   22   15   15
 -0.3529100652170937   22   22   16   16
 -0.3549410394656977   22   22   17   17
 -0.3560807158315691   22   22   18   18
 -0.3567241397944028   22   22   19   19
 -0.3575718770287494   22   22   20   20
 -0.3587627235054889   22   22   21   21
 -0.3598187695370841   22   22   22   22
 -0.3271307507764539   23   23    1    1
 -0.329292644532065   23   23    2    2
 -0.3313328303079763   23   23    3    3
 -0.3358692973248752   23   23    4    4
 -0.3359576746809465   23   23    5    5
 -0.3365915583552739   23   23    6    6
 -0.3379534246908669   23   23    7    7
 -0.34194875186282   23   23    8    8
 -0.3427926379676186   23   23    9    9
 -0.343852705473925   23   23   10   10
 -0.345922680609383   23   23   11   11
 -0.3471540818557762   23   23   12   12
 -0.3485615276110549   23   23   13   13
 -0.3493140985550754   23   23   14   14
 -0.3508985297362455   23   23   15   15
 -0.3531298364921892   23   23   16   16
 -0.3551620755100483   23   23   17   17
 -0.356302461598177   23   23   18   18
 -0.3569462862469606   23   23   19   19
 -0.3577945514013393   23   23   20   20
 -0.3589861394660199   23   23   21   21
 -0.3600428431399035   23   23   22   22
 -0.3602670562823573   23   23   23   23
 -0.3273045540946289   24   24    1    1
 -0.3294675964561335   24   24    2    2
 -0.3315088661749536   24   24    3    3
 -0.3360477433994483   24   24    4    4
 -0.3361361677100712   24   24    5    5
 -0.3367703881643732   24   24    6    6
 -0.3381329780543477   24   24    7    7
 -0.3421304279283642   24   24    8    8
 -0.3429747623866264   24   24    9    9
 -0.3440353931027493   24   24   10   10
 -0.3461064680080889   24   24   11   11
 -0.3473385234932601   24   24   12   12
 -0.3487467170190918   24   24   13   13
 -0.3494996878011798   24   24   14   14
 -0.3510849607845837   24   24   15   15
 -0.3533174530252827   24   24   16   16
 -0.3553507717639684   24   24   17   17
 -0.3564917637348692   24   24   18   18
 -0.3571359304452292   24   24   19   19
 -0.3579846462796438   24   24   20   20
 -0.359176867430511   24   24   21   21
 -0.3602341325270198   24   24   22   22
 -0.3604584647930595   24   24   23   23
 -0.3606499749983723   24   24   24   24
 -0.3275455780410526   25   25    1    1
 -0.3297102132462855   25   25    2    2
 -0.3317529861366235   25   25    3    3
 -0.3362952057469397   25   25    4    4
 -0.3363836951723802   25   25    5    5
 -0.3370183826605652   25   25    6    6
 -0.3383819759487158   25   25    7    7
 -0.3423823695066261   25   25    8    8
 -0.3432273257247163   25   25    9    9
 -0.3442887374791648   25   25   10   10
 -0.3463613375042768   25   25   11   11
 -0.3475943002633356   25   25   12   12
 -0.3490035307694253   25   25   13   13
 -0.349757056032003   25   25   14   14
 -0.3513434963952854   25   25   15   15
 -0.3535776326219403   25   25   16   16
 -0.3556124486771179   25   25   17   17
 -0.3567542808636046   25   25   18   18
 -0.3573989219321754   25   25   19   19
 -0.3582482627528215   25   25   20   20
 -0.3594413618439532   25   25   21   21
 -0.3604994055003775   25   25   22   22
 -0.3607239029625545   25   25   23   23
 -0.3609155541941527   25   25   24   24
 -0.3611813289599154   25   25   25   25
 -0.3288531024707428   26   26    1    1
 -0.3310263786517726   26   26    2    2
 -0.3330773060575046   26   26    3    3
 -0.3376376576882287   26   26    4    4
 -0.3377265003533197   26   26    5    5
 -0.3383637214412589   26   26    6    6
 -0.3397327580376266   26   26    7    7
 -0.3437491207084055   26   26    8    8
 -0.344597449894935   26   26    9    9
 -0.3456630986835306   26   26   10   10
 -0.3477439722905423   26   26   11   11
 -0.3489818568957088   26   26   12   12
 -0.3503967128885622   26   26   13   13
 -0.3511532461376776   26   26   14   14
 -0.3527460193891755   26   26   15   15
 -0.354989074031744   26   26   16   16
 -0.3570320128395412   26   26   17   17
 -0.3581784030893281   26   26   18   18
 -0.3588256174912059   26   26   19   19
 -0.3596783487831225   26   26   20   20
 -0.3608762105891656   26   26   21   21
 -0.3619384778346755   26   26   22   22
 -0.3621638714650071   26   26   23   23
 -0.3623562877463696   26   26   24   24
 -0.3626231234545548   26   26   25   25
 -0.3640706734276702   26   26   26   26
 -0.3303146348142268   27   27    1    1
 -0.3324975697559799   27   27    2    2
 -0.3345576121638668   27   27    3    3
 -0.3391382315109538   27   27    4    4
 -0.339227469022338   27   27    5    5
 -0.3398675221323045   27   27    6    6
 -0.3412426431817304   27   27    7    7
 -0.3452768559013682   27   27    8    8
 -0.3461289553443883   27   27    9    9
 -0.3471993402299209   27   27   10   10
 -0.3492894619299458   27   27   11   11
 -0.3505328481051883   27   27   12   12
 -0.3519539921877067   27   27   13   13
 -0.3527138877216969   27   27   14   14
 -0.3543137397862132   27   27   15   15
 -0.3565667633081496   27   27   16   16
 -0.3586187816141208   27   27   17   17
 -0.3597702668026986   27   27   18   18
 -0.3604203576402081   27   27   19   19
 -0.3612768787530328   27   27   20   20
 -0.3624800642545478   27   27   21   21
 -0.3635470525682947   27   27   22   22
 -0.3637734479227344   27   27   23   23
 -0.36396671936592   27   27   24   24
 -0.364234740980563   27   27   25   25
 -0.3656887243462438   27   27   26   26
 -0.3673139664201786   27   27   27   27
 -0.3316369194851361   28   28    1    1
 -0.3338285929480046   28   28    2    2
 -0.3358968819251024   28   28    3    3
 -0.3404958379793998   28   28    4    4
 -0.3405854327180484   28   28    5    5
 -0.3412280480287977   28   28    6    6
 -0.3426086738342733   28   28    7    7
 -0.3466590359371843   28   28    8    8
 -0.3475145464250472   28   28    9    9
 -0.3485892161753025   28   28   10   10
 -0.3506877048551491   28   28   11   11
 -0.3519360684377065   28   28   12   12
 -0.3533629015113788   28   28   13   13
 -0.3541258389881417   28   28   14   14
 -0.3557320954309013   28   28   15   15
 -0.357994138046006   28   28   16   16
 -0.3600543707998533   28   28   17   17
 -0.3612104655063064   28   28   18   18
 -0.3618631587266913   28   28   19   19
 -0.3627231085847741   28   28   20   20
 -0.3639311105660246   28   28   21   21
 -0.3650023701476556   28   28   22   22
 -0.3652296717868165   28   28   23   23
 -0.3654237169161779   28   28   24   24
 -0.3656928114498962   28   28   25   25
 -0.3671526152658796   28   28   26   26
 -0.3687843633569702   28   28   27   27
 -0.3702606464493381   28   28   28   28
 -0.3329096605572022   29   29    1    1
 -0.3351097451247122   29   29    2    2
 -0.3371859716870889   29   29    3    3
 -0.3418025774055674   29   29    4    4
 -0.3418925159868252   29   29    5    5
 -0.3425375974973595   29   29    6    6
 -0.3439235218056993   29   29    7    7
 -0.3479894282038991   29   29    8    8
 -0.3488482219309657   29   29    9    9
 -0.349927015999865   29   29   10   10
 -0.3520335581640349   29   29   11   11
 -0.3532867126595186   29   29   12   12
 -0.3547190215682054   29   29   13   13
 -0.3554848870116845   29   29   14   14
 -0.3570973078722964   29   29   15   15
 -0.3593680316515716   29   29   16   16
 -0.3614361710728909   29   29   17   17
 -0.3625967025869781   29   29   18   18
 -0.3632519006836907   29   29   19   19
 -0.3641151508181903   29   29   20   20
 -0.365327788814451   29   29   21   21
 -0.366403159627336   29   29   22   22
 -0.3666313335943799   29   29   23   23
 -0.3668261234213051   29   29   24   24
 -0.3670962506737745   29   29   25   25
 -0.3685616568583865   29   29   26   26
 -0.3701996671980168   29   29   27   27
 -0.3716816159024299   29   29   28   28
 -0.3731080386874002   29   29   29   29
 -0.3346848036011053   30   30    1    1
 -0.3368966194737672   30   30    2    2
 -0.3389839169048401   30   30    3    3
 -0.3436251393181718   30   30    4    4
 -0.343715557470514   30   30    5    5
 -0.3443640786888484   30   30    6    6
 -0.3457573930317436   30   30    7    7
 -0.3498449796823213   30   30    8    8
 -0.3507083526748505   30   30    9    9
 -0.3517928990964572   30   30   10   10
 -0.3539106737783712   30   30   11   11
 -0.3551705103523559   30   30   12   12
 -0.3566104566278639   30   30   13   13
 -0.3573804058240111   30   30   14   14
 -0.3590014244455585   30   30   15   15
 -0.3612842561928471   30   30   16   16
 -0.3633634233605569   30   30   17   17
 -0.3645301430682851   30   30   18   18
 -0.3651888348165241   30   30   19   19
 -0.3660566879789708   30   30   20   20
 -0.3672757920113935   30   30   21   21
 -0.3683568969234781   30   30   22   22
 -0.3685862875612239   30   30   23   23
 -0.3687821160477233   30   30   24   24
 -0.3690536836744744   30   30   25   25
 -0.3705269037074161   30   30   26   26
 -0.3721736482563672   30   30   27   27
 -0.3736634990172411   30   30   28   28
 -0.3750975277830055   30   30   29   29
 -0.3770976252452263   30   30   30   30
 -0.3350056498927911   31   31    1    1
 -0.3372195861273966   31   31    2    2
 -0.3393088845505468   31   31    3    3
 -0.3439545562815176   31   31    4    4
 -0.3440450611134119   31   31    5    5
 -0.3446942040379778   31   31    6    6
 -0.3460888540846015   31   31    7    7
 -0.3501803593087287   31   31    8    8
 -0.3510445599755951   31   31    9    9
 -0.3521301460999124   31   31   10   10
 -0.3542499509909846   31   31   11   11
 -0.3555109953099536   31   31   12   12
 -0.3569523219929905   31   31   13   13
 -0.3577230093025559   31   31   14   14
 -0.359345581917018   31   31   15   15
 -0.3616306021057679   31   31   16   16
 -0.363711762471461   31   31   17   17
 -0.3648796006574936   31   31   18   18
 -0.365538923861964   31   31   19   19
 -0.3664076089936721   31   31   20   20
 -0.3676278817227425   31   31   21   21
 -0.3687100230383273   31   31   22   22
 -0.3689396335818912   31   31   23   23
 -0.3691356497997815   31   31   24   24
 -0.3694074777654098   31   31   25   25
 -0.370882110103838   31   31   26   26
 -0.3725304333079184   31   31   27   27
 -0.3740217123173613   31   31   28   28
 -0.3754571158178215   31   31   29   29
 -0.3774591306776859   31   31   30   30
 -0.3778209826680894   31   31   31   31
 -0.3364108839384048   32   32    1    1
 -0.3386341068777947   32   32    2    2
 -0.3407321691927677   32   32    3    3
 -0.3453973279266687   32   32    4    4
 -0.3454882123953575   32   32    5    5
 -0.3461400782523228   32   32    6    6
 -0.3475405783785732   32   32    7    7
 -0.3516492460667978   32   32    8    8
 -0.352517071759689   32   32    9    9
 -0.353607211546256   32   32   10   10
 -0.355735908293343   32   32   11   11
 -0.3570022422616376   32   32   12   12
 -0.3584496148168159   32   32   13   13
 -0.3592235348958771   32   32   14   14
 -0.3608529136471313   32   32   15   15
 -0.3631475187135249   32   32   16   16
 -0.3652374088346749   32   32   17   17
 -0.3664101457022052   32   32   18   18
 -0.3670722345418651   32   32   19   19
 -0.3679445635103933   32   32   20   20
 -0.3691699548659237   32   32   21   21
 -0.3702566353939646   32   32   22   22
 -0.3704872090751744   32   32   23   23
 -0.3706840475140122   32   32   24   24
 -0.3709570157049232   32   32   25   25
 -0.3724378336213183   32   32   26   26
 -0.3740930709771012   32   32   27   27
 -0.3755906053915983   32   32   28   28
 -0.3770320299184762   32   32   29   29
 -0.379042442545488   32   32   30   30
 -0.3794058123811475   32   32   31   31
 -0.3809972899124439   32   32   32   32
 -0.3366576520081103   33   33    1    1
 -0.3388825057521486   33   33    2    2
 -0.3409821070624761   33   33    3    3
 -0.3456506878385005   33   33    4    4
 -0.3457416389738341   33   33    5    5
 -0.3463939829951125   33   33    6    6
 -0.3477955104326934   33   33    7    7
 -0.3519071919591821   33   33    8    8
 -0.3527756542297863   33   33    9    9
 -0.3538665936685158   33   33   10   10
 -0.3559968518822863   33   33   11   11
 -0.3572641147467728   33   33   12   12
 -0.358712548995697   33   33   13   13
 -0.3594870367697204   33   33   14   14
 -0.3611176107220471   33   33   15   15
 -0.3634138989541466   33   33   16   16
 -0.3655053220760874   33   33   17   17
 -0.3666789191833629   33   33   18   18
 -0.3673414936862184   33   33   19   19
 -0.3682144625357552   33   33   20   20
 -0.3694407527547703   33   33   21   21
 -0.3705282303974978   33   33   22   22
 -0.370758973211827   33   33   23   23
 -0.3709559560379125   33   33   24   24
 -0.3712291244596626   33   33   25   25
 -0.3727110286030385   33   33   26   26
 -0.3743674801280016   33   33   27   27
 -0.3758661130315621   33   33   28   28
 -0.3773085948891184   33   33   29   29
 -0.3793204822176544   33   33   30   30
 -0.379684118596631   33   33   31   31
 -0.381276763527251   33   33   32   32
 -0.3815564421448323   33   33   33   33
 -0.3429071547099199   34   34    1    1
 -0.3451733092513752   34   34    2    2
 -0.3473118862510516   34   34    3    3
 -0.3520671316491317   34   34    4    4
 -0.3521597711446217   34   34    5    5
 -0.3528242248734893   34   34    6    6
 -0.3542517693923857   34   34    7    7
 -0.3584397776105611   34   34    8    8
 -0.359324361473157   34   34    9    9
 -0.3604355524312837   34   34   10   10
 -0.36260535543004   34   34   11   11
 -0.3638961429720387   34   34   12   12
 -0.3653714650510719   34   34   13   13
 -0.3661603299331379   34   34   14   14
 -0.3678211728434394   34   34   15   15
 -0.3701600879382436   34   34   16   16
 -0.3722903349347443   34   34   17   17
 -0.3734857179668281   34   34   18   18
 -0.3741605920895527   34   34   19   19
 -0.375049766188402   34   34   20   20
 -0.3762988204942907   34   34   21   21
 -0.3774064853937931   34   34   22   22
 -0.3776415115738294   34   34   23   23
 -0.3778421510662537   34   34   24   24
 -0.3781203904162289   34   34   25   25
 -0.3796298037039614   34   34   26   26
 -0.3813170045620199   34   34   27   27
 -0.3828434571522086   34   34   28   28
 -0.3843127163433924   34   34   29   29
 -0.3863619510936204   34   34   30   30
 -0.3867323377915616   34   34   31   31
 -0.3883545475894512   34   34   32   32
 -0.3886394179864731   34   34   33   33
 -0.3958538777744766   34   34   34   34
 -0.3461247151909473   35   35    1    1
 -0.3484121334744866   35   35    2    2
 -0.3505707771328643   35   35    3    3
 -0.3553706418672873   35   35    4    4
 -0.3554641506160885   35   35    5    5
 -0.3561348390356884   35   35    6    6
 -0.3575757784656149   35   35    7    7
 -0.3618030835300414   35   35    8    8
 -0.3626959676046315   35   35    9    9
 -0.3638175850705304   35   35   10   10
 -0.3660077477272424   35   35   11   11
 -0.3673106469645717   35   35   12   12
 -0.3687998122602105   35   35   13   13
 -0.3695960792055887   35   35   14   14
 -0.3712725061083501   35   35   15   15
 -0.3736333676708035   35   35   16   16
 -0.3757836031640638   35   35   17   17
 -0.3769902026935314   35   35   18   18
 -0.3776714092834476   35   35   19   19
 -0.3785689266653166   35   35   20   20
 -0.3798297010759569   35   35   21   21
 -0.3809477593975794   35   35   22   22
 -0.3811849908712016   35   35   23   23
 -0.3813875130006397   35   35   24   24
 -0.3816683631212694   35   35   25   25
 -0.3831919395096474   35   35   26   26
 -0.3848949716816049   35   35   27   27
 -0.3864357472553268   35   35   28   28
 -0.3879187927739318   35   35   29   29
 -0.389987255868212   35   35   30   30
 -0.3903611179722087   35   35   31   31
 -0.3919985492610061   35   35   32   32
 -0.3922860926490085   35   35   33   33
 -0.3995682470312687   35   35   34   34
 -0.4033174688934045   35   35   35   35
 -0.3469884500943272   36   36    1    1
 -0.3492815765024915   36   36    2    2
 -0.3514456069356065   36   36    3    3
 -0.3562574494645084   36   36    4    4
 -0.3563511915591719   36   36    5    5
 -0.3570235536442798   36   36    6    6
 -0.3584680888581092   36   36    7    7
 -0.3627059429263228   36   36    8    8
 -0.3636010551432733   36   36    9    9
 -0.3647254715429409   36   36   10   10
 -0.3669210996282908   36   36   11   11
 -0.3682272501779289   36   36   12   12
 -0.3697201316024261   36   36   13   13
 -0.3705183855875128   36   36   14   14
 -0.3721989959200188   36   36   15   15
 -0.3745657488806996   36   36   16   16
 -0.3767213501665904   36   36   17   17
 -0.377930960697822   36   36   18   18
 -0.3786138672007531   36   36   19   19
 -0.3795136242871421   36   36   20   20
 -0.3807775448899379   36   36   21   21
 -0.3818983932636832   36   36   22   22
 -0.3821362167352038   36   36   23   23
 -0.3823392442473096   36   36   24   24
 -0.3826207952137361   36   36   25   25
 -0.3841481736019333   36   36   26   26
 -0.3858554555955993   36   36   27   27
 -0.3874000760887473   36   36   28   28
 -0.388886822464649   36   36   29   29
 -0.3909604472931033   36   36   30   30
 -0.3913352423491086   36   36   31   31
 -0.392976759756273   36   36   32   32
 -0.3932650206927472   36   36   33   33
 -0.4005653472847217   36   36   34   34
 -0.4043239251207036   36   36   35   35
 -0.4053328929033299   36   36   36   36
 -0.3472058464326077   37   37    1    1
 -0.349500409537827   37   37    2    2
 -0.3516657957863644   37   37    3    3
 -0.3564806530465806   37   37    4    4
 -0.3565744538728478   37   37    5    5
 -0.3572472372084475   37   37    6    6
 -0.3586926774572023   37   37    7    7
 -0.3629331866396029   37   37    8    8
 -0.3638288596651864   37   37    9    9
 -0.3649539805378931   37   37   10   10
 -0.3671509842353299   37   37   11   11
 -0.368457953118681   37   37   12   12
 -0.3699517698681295   37   37   13   13
 -0.3707505239779129   37   37   14   14
 -0.3724321872518993   37   37   15   15
 -0.3748004230383835   37   37   16   16
 -0.37695737485864   37   37   17   17
 -0.3781677432390166   37   37   18   18
 -0.3788510775987627   37   37   19   19
 -0.3797513984039034   37   37   20   20
 -0.3810161108823679   37   37   21   21
 -0.3821376614937011   37   37   22   22
 -0.3823756339671606   37   37   23   23
 -0.3825787886807271   37   37   24   24
 -0.3828605160453857   37   37   25   25
 -0.3843888513716846   37   37   26   26
 -0.3860972030172476   37   37   27   27
 -0.3876427912510774   37   37   28   28
 -0.3891304691081795   37   37   29   29
 -0.3912053931108413   37   37   30   30
 -0.3915804229846706   37   37   31   31
 -0.3932229688406881   37   37   32   32
 -0.3935114103793467   37   37   33   33
 -0.4008163107958072   37   37   34   34
 -0.4045772434682641   37   37   35   35
 -0.4055868433926844   37   37   36   36
 -0.4058409529879298   37   37   37   37
 -0.3499213332186243   38   38    1    1
 -0.3522338420348848   38   38    2    2
 -0.3544161637060396   38   38    3    3
 -0.3592686778242868   38   38    4    4
 -0.359363212264077   38   38    5    5
 -0.3600412574184983   38   38    6    6
 -0.3614980024132295   38   38    7    7
 -0.3657716764941164   38   38    8    8
 -0.3666743545522779   38   38    9    9
 -0.3678082749624749   38   38   10   10
 -0.3700224613616736   38   38   11   11
 -0.3713396520104958   38   38   12   12
 -0.3728451518571201   38   38   13   13
 -0.3736501529994713   38   38   14   14
 -0.3753449685128165   38   38   15   15
 -0.3777317262022307   38   38   16   16
 -0.3799055474796872   38   38   17   17
 -0.3811253821158223   38   38   18   18
 -0.3818140608136416   38   38   19   19
 -0.3827214230015085   38   38   20   20
 -0.3839960267593355   38   38   21   21
 -0.385126348985249   38   38   22   22
 -0.3853661826344743   38   38   23   23
 -0.3855709262151232   38   38   24   24
 -0.3858548569612739   38   38   25   25
 -0.3873951453535301   38   38   26   26