 &FCI NORB=  15,NELEC=22,MS2=0,
  ORBSYM=1,1,1,1,1,1,1,1,1,1,1,1,1,1,1,
  ISYM=1,
 &END
 -1.32808730467594    1    1    1    1
 -1.312136506781683    2    2    1    1
 -1.296377283607377    2    2    2    2
 -1.192268542856421    3    3    1    1
 -1.177948976291915    3    3    2    2
 -1.070339482412136    3    3    3    3
 -1.127878852141385    4    4    1    1
 -1.114332628518606    4    4    2    2
 -1.012534696195522    4    4    3    3
 -0.9578517169985068    4    4    4    4
 -1.12163176005135    5    5    1    1
 -1.108160566212385    5    5    2    2
 -1.006926471979349    5    5    3    3
 -0.9525463707077004    5    5    4    4
 -0.9472704096534247    5    5    5    5
 -1.120575569359482    6    6    1    1
 -1.107117060744    6    6    2    2
 -1.005978294150423    6    6    3    3
 -0.9516494001990656    6    6    4    4
 -0.946378407282422    6    6    5    5
 -0.9454872448703386    6    6    6    6
 -1.120459017406317    7    7    1    1
 -1.107001908620983    7    7    2    2
 -1.005873661550685    7    7    3    3
 -0.9515504183906498    7    7    4    4
 -0.9462799737141572    7    7    5    5
 -0.9453889039925828    7    7    6    6
 -0.9452905733433395    7    7    7    7
 -1.116201294123174    8    8    1    1
 -1.10279532209921    8    8    2    2
 -1.002051360473936    8    8    3    3
 -0.9479345446205896    8    8    4    4
 -0.9426841275351671    8    8    5    5
 -0.9417964438618476    8    8    6    6
 -0.9416984868672301    8    8    7    7
 -0.9381200502524603    8    8    8    8
 -1.111304134099507    9    9    1    1
 -1.097956978698155    9    9    2    2
 -0.9976550155762817    9    9    3    3
 -0.9437756288574481    9    9    4    4
 -0.9385482471625001    9    9    5    5
 -0.9376644580635924    9    9    6    6
 -0.937566930840093    9    9    7    7
 -0.9340041940608539    9    9    8    8
 -0.9299063955498029    9    9    9    9
 -1.110854596180499   10   10    1    1
 -1.097512839888426   10   10    2    2
 -0.9972514503002877   10   10    3    3
 -0.9433938585398636   10   10    4    4
 -0.9381685913932351   10   10    5    5
 -0.9372851597992625   10   10    6    6
 -0.9371876720268761   10   10    7    7
 -0.9336263764240248   10   10    8    8
 -0.9295302355292453   10   10    9    9
 -0.9291542276706275   10   10   10   10
 -1.10951016893729   11   11    1    1
 -1.096184559691548   11   11    2    2
 -0.9960445128462564   11   11    3    3
 -0.9422521029862045   11   11    4    4
 -0.9370331597918999   11   11    5    5
 -0.9361507973833153   11   11    6    6
 -0.9360534275968628   11   11    7    7
 -0.9324964421016047   11   11    8    8
 -0.92840525861838   11   11    9    9
 -0.9280297058285089   11   11   10   10
 -0.9269065449546081   11   11   11   11
 -1.107427339842824   12   12    1    1
 -1.094126746110609   12   12    2    2
 -0.9941746872702312   12   12    3    3
 -0.9404832592663667   12   12    4    4
 -0.935274113338488   12   12    5    5
 -0.9343934073456335   12   12    6    6
 -0.9342962203467119   12   12    7    7
 -0.9307459122060966   12   12    8    8
 -0.9266624089012321   12   12    9    9
 -0.9262875611182182   12   12   10   10
 -0.9251665086992116   12   12   11   11
 -0.9234297389286473   12   12   12   12
 -1.105493532617529   13   13    1    1
 -1.092216164593525   13   13    2    2
 -0.9924386436272041   13   13    3    3
 -0.9388409724484374   13   13    4    4
 -0.9336409228139864   13   13    5    5
 -0.932761754723937   13   13    6    6
 -0.9326647374344978   13   13    7    7
 -0.9291206288983961   13   13    8    8
 -0.9250442562719167   13   13    9    9
 -0.9246700630540602   13   13   10   10
 -0.9235509682346089   13   13   11   11
 -0.9218172312390269   13   13   12   12
 -0.9202075393359679   13   13   13   13
 -1.081303175993598   14   14    1    1
 -1.068316342701866   14   14    2    2
 -0.9707221486786816   14   14    3    3
 -0.9182972991779909   14   14    4    4
 -0.9132110367810116   14   14    5    5
 -0.9123511066050731   14   14    6    6
 -0.9122562122433228   14   14    7    7
 -0.908789655720754   14   14    8    8
 -0.9048024820851842   14   14    9    9
 -0.9044364769454297   14   14   10   10
 -0.9033418701053104   14   14   11   11
 -0.901646070659771   14   14   12   12
 -0.9000716019579706   14   14   13   13
 -0.8803762781989219   14   14   14   14
 -1.047239421690298   15   15    1    1
 -1.034661706126368   15   15    2    2
 -0.9401419732907959   15   15    3    3
 -0.8893686376600592   15   15    4    4
 -0.884442605248952   15   15    5    5
 -0.8836097650241775   15   15    6    6
 -0.8835178600721461   15   15    7    7
 -0.8801605087496406   15   15    8    8
 -0.8762989410552183   15   15    9    9
 -0.875944465992718   15   15   10   10
 -0.8748843420055935   15   15   11   11
 -0.8732419644836579   15   15   12   12
 -0.8717170954835942   15   15   13   13
 -0.8526422236795079   15   15   14   14
 -0.8257818612382806   15   15   15   15
 -0.6640436523379698    1    1  0  0
 -0.6481886418036884    2    2  0  0
 -0.5351697412060679    3    3  0  0
 -0.4789258584992534    4    4  0  0
 -0.4736352048267123    5    5  0  0
 -0.4727436224351693    6    6  0  0
 -0.4726452866716698    7    7  0  0
 -0.4690600251262301    8    8  0  0
 -0.4649531977749015    9    9  0  0
 -0.4645771138353137   10   10  0  0
 -0.4634532724773041   11   11  0  0
 -0.4617148694643237   12   12  0  0
 -0.4601037696679839   13   13  0  0
 -0.440188139099461   14   14  0  0
 -0.4128909306191403   15   15  0  0
 -1751.130799109918  0  0  0  0
