 &FCI NORB=  17,NELEC=22,MS2=0,
  ORBSYM=1,1,1,1,1,1,1,1,1,1,1,1,1,1,1,1,1,
  ISYM=1,
 &END
 -0.4827078270912722    1    1    1    1
 -0.7024151625540485    2    2    1    1
 -1.022123597122735    2    2    2    2
 -0.7054960161368942    3    3    1    1
 -1.026606719518408    3    3    2    2
 -1.031109505276195    3    3    3    3
 -0.7144600209227793    4    4    1    1
 -1.039650744341362    4    4    2    2
 -1.044210742318863    4    4    3    3
 -1.057478443166946    4    4    4    4
 -0.7170612710303793    5    5    1    1
 -1.043435968890514    5    5    2    2
 -1.048012569189884    5    5    3    3
 -1.061328575901483    5    5    4    4
 -1.065192726436732    5    5    5    5
 -0.7209789945558969    6    6    1    1
 -1.049136867555449    6    6    2    2
 -1.053738472488849    6    6    3    3
 -1.0671272323038    6    6    4    4
 -1.071012494944903    6    6    5    5
 -1.076864060239372    6    6    6    6
 -1.290394610395084    7    7    1    1
 -1.877725384072023    7    7    2    2
 -1.885961249818548    7    7    3    3
 -1.909924199690241    7    7    4    4
 -1.916877969508649    7    7    5    5
 -1.927350990741408    7    7    6    6
 -3.449536463020379    7    7    7    7
 -1.32241421789363    8    8    1    1
 -1.924318906164955    8    8    2    2
 -1.932759135124477    8    8    3    3
 -1.957316697096389    8    8    4    4
 -1.964443016442227    8    8    5    5
 -1.975175913240565    8    8    6    6
 -3.535132607570316    8    8    7    7
 -3.622852718641656    8    8    8    8
 -1.324338654692392    9    9    1    1
 -1.927119261806529    9    9    2    2
 -1.935571773367811    9    9    3    3
 -1.960165072611227    9    9    4    4
 -1.967301762498309    9    9    5    5
 -1.978050278292025    9    9    6    6
 -3.540277091943258    9    9    7    7
 -3.628124857275609    9    9    8    8
 -3.633404668163428    9    9    9    9
 -1.328042908854004   10   10    1    1
 -1.932509529258269   10   10    2    2
 -1.940985682998246   10   10    3    3
 -1.965647771165665   10   10    4    4
 -1.972804422799782   10   10    5    5
 -1.983583002832896   10   10    6    6
 -3.550179458006972   10   10    7    7
 -3.638272938775605   10   10    8    8
 -3.643567517609208   10   10    9    9
 -3.653758793150701   10   10   10   10
 -1.333031766051775   11   11    1    1
 -1.939769094450422   11   11    2    2
 -1.948277089270467   11   11    3    3
 -1.973031821760781   11   11    4    4
 -1.980215357701707   11   11    5    5
 -1.991034427990235   11   11    6    6
 -3.563515878256934   11   11    7    7
 -3.651940286432112   11   11    8    8
 -3.657254754606299   11   11    9    9
 -3.667484314165575   11   11   10   10
 -3.681261395761701   11   11   11   11
 -1.339557909229488   12   12    1    1
 -1.949265650469924   12   12    2    2
 -1.957815298005054   12   12    3    3
 -1.982691222602466   12   12    4    4
 -1.989909927085709   12   12    5    5
 -2.000781964455406   12   12    6    6
 -3.580961835232467   12   12    7    7
 -3.669819144080271   12   12    8    8
 -3.675159630374283   12   12    9    9
 -3.6854392709384   12   12   10   10
 -3.699283801195058   12   12   11   11
 -3.717394439183152   12   12   12   12
 -1.671049722942519   13   13    1    1
 -2.431637932721207   13   13    2    2
 -2.442303306757222   13   13    3    3
 -2.473335117043315   13   13    4    4
 -2.482340188077284   13   13    5    5
 -2.495902658881478   13   13    6    6
 -4.467119518614103   13   13    7    7
 -4.577965776404445   13   13    8    8
 -4.584627838626987   13   13    9    9
 -4.597451315983405   13   13   10   10
 -4.614721863445564   13   13   11   11
 -4.637314224987982   13   13   12   12
 -5.784880666578189   13   13   13   13
 -1.672347281180827   14   14    1    1
 -2.433526082300999   14   14    2    2
 -2.444199737924184   14   14    3    3
 -2.475255644190507   14   14    4    4
 -2.484267707598159   14   14    5    5
 -2.497840709564581   14   14    6    6
 -4.470588205184771   14   14    7    7
 -4.581520534306805   14   14    8    8
 -4.588187769573335   14   14    9    9
 -4.601021204268821   14   14   10   10
 -4.618305162188388   14   14   11   11
 -4.640915066539042   14   14   12   12
 -5.789372585318545   14   14   13   13
 -5.793867992001891   14   14   14   14
 -1.675271851509664   15   15    1    1
 -2.437781788191059   15   15    2    2
 -2.448474109707918   15   15    3    3
 -2.479584325974935   15   15    4    4
 -2.488612149514193   15   15    5    5
 -2.502208887698129   15   15    6    6
 -4.478406288046183   15   15    7    7
 -4.589532613595821   15   15    8    8
 -4.596211508401403   15   15    9    9
 -4.609067385972689   15   15   10   10
 -4.626381569761649   15   15   11   11
 -4.64903101389937   15   15   12   12
 -5.799496934176066   15   15   13   13
 -5.804000202344374   15   15   14   14
 -5.81415013171093   15   15   15   15
 -1.67797936615948   16   16    1    1
 -2.441721644220177   16   16    2    2
 -2.452431246285933   16   16    3    3
 -2.483591741775529   16   16    4    4
 -2.492634155761387   16   16    5    5
 -2.506252868508907   16   16    6    6
 -4.485644128652044   16   16    7    7
 -4.596950052607835   16   16    8    8
 -4.603639741605128   16   16    9    9
 -4.616516396387484   16   16   10   10
 -4.633858562743104   16   16   11   11
 -4.656544612105081   16   16   12   12
 -5.80886987439272   16   16   13   13
 -5.813380420582518   16   16   14   14
 -5.823546753903113   16   16   15   15
 -5.832958562581132   16   16   16   16
 -1.683805534696   17   17    1    1
 -2.450199627981716   17   17    2    2
 -2.460946415216642   17   17    3    3
 -2.492215104109604   17   17    4    4
 -2.501288914564883   17   17    5    5
 -2.514954913302517   17   17    6    6
 -4.501218884346565   17   17    7    7
 -4.612911277340747   17   17    8    8
 -4.619624193831978   17   17    9    9
 -4.632545558080055   17   17   10   10
 -4.649947938754164   17   17   11   11
 -4.672712757110371   17   17   12   12
 -5.829039046658759   17   17   13   13
 -5.833565254067536   17   17   14   14
 -5.843766886255636   17   17   15   15
 -5.853211373990799   17   17   16   16
 -5.873534505867445   17   17   17   17
 -0.2413539135456361    1    1  0  0
 -0.5110617985613675    2    2  0  0
 -0.5155547526380975    3    3  0  0
 -0.5287392215834732    4    4  0  0
 -0.5325963632183662    5    5  0  0
 -0.5384320301196858    6    6  0  0
 -1.72476823151019    7    7  0  0
 -1.811426359320828    8    8  0  0
 -1.816702334081714    9    9  0  0
 -1.82687939657535   10   10  0  0
 -1.840630697880851   11   11  0  0
 -1.858697219591576   12   12  0  0
 -2.892440333289095   13   13  0  0
 -2.896933996000945   14   14  0  0
 -2.907075065855465   15   15  0  0
 -2.916479281290566   16   16  0  0
 -2.936767252933723   17   17  0  0
 -1532.86478792693  0  0  0  0
