 &FCI NORB=  33,NELEC=50,MS2=0,
  ORBSYM=1,1,1,1,1,1,1,1,1,1,1,1,1,1,1,1,1,1,1,1,1,1,1,1,1,1,1,1,1,1,1,1,1,
  ISYM=1,
 &END
 -0.4085692891961062    1    1    1    1
 -0.4117852843345955    2    2    1    1
 -0.4150265937221101    2    2    2    2
 -0.423856540277849    3    3    1    1
 -0.4271928668422672    3    3    2    2
 -0.439715787473387    3    3    3    3
 -0.4252763576614174    4    4    1    1
 -0.4286238601167404    4    4    2    2
 -0.4411887295175865    4    4    3    3
 -0.4426666055630826    4    4    4    4
 -0.4256529025617323    5    5    1    1
 -0.4290033689367646    5    5    2    2
 -0.4415793634270043    5    5    3    3
 -0.4430585480020677    5    5    4    4
 -0.4434508374716929    5    5    5    5
 -0.4317643695523373    6    6    1    1
 -0.4351629414718893    6    6    2    2
 -0.4479195003955878    6    6    3    3
 -0.4494199229033638    6    6    4    4
 -0.4498178448123073    6    6    5    5
 -0.4562762687859505    6    6    6    6
 -0.4330389884754266    7    7    1    1
 -0.4364475933768215    7    7    2    2
 -0.449241811154618    7    7    3    3
 -0.4507466630851437    7    7    4    4
 -0.451145759706108    7    7    5    5
 -0.4576232497027736    7    7    6    6
 -0.4589742070648217    7    7    7    7
 -0.4438801632350571    8    8    1    1
 -0.4473741029040042    8    8    2    2
 -0.4604886252144945    8    8    3    3
 -0.462031151264904    8    8    4    4
 -0.4624402393100334    8    8    5    5
 -0.4690798939221874    8    8    6    6
 -0.4704646726380733    8    8    7    7
 -0.4822428031760609    8    8    8    8
 -0.4442599854508289    9    9    1    1
 -0.4477569148364084    9    9    2    2
 -0.4608826590651897    9    9    3    3
 -0.4624265050341512    9    9    4    4
 -0.4628359431303543    9    9    5    5
 -0.4694812792046137    9    9    6    6
 -0.470867242856804    9    9    7    7
 -0.4826554517808271    9    9    8    8
 -0.4830684534833894    9    9    9    9
 -0.4464100366196451   10   10    1    1
 -0.4499238898276685   10   10    2    2
 -0.4631131577197209   10   10    3    3
 -0.4646644753222727   10   10    4    4
 -0.465075894944803   10   10    5    5
 -0.4717533919452352   10   10    6    6
 -0.4731460631400084   10   10    7    7
 -0.4849913225596994   10   10    8    8
 -0.4854063230351029   10   10    9    9
 -0.4877555069957814   10   10   10   10
 -0.453089753739128   11   11    1    1
 -0.4566561853918628   11   11    2    2
 -0.4700428067735436   11   11    3    3
 -0.4716173370323922   11   11    4    4
 -0.4720349128039121   11   11    5    5
 -0.4788123264445858   11   11    6    6
 -0.480225836439696   11   11    7    7
 -0.4922483386981223   11   11    8    8
 -0.4926695489034887   11   11    9    9
 -0.4950538841444515   11   11   10   10
 -0.5024614682794913   11   11   11   11
 -0.4532533251580583   12   12    1    1
 -0.4568210443399882   12   12    2    2
 -0.4702124984697857   12   12    3    3
 -0.4717875971549702   12   12    4    4
 -0.4722053236768899   12   12    5    5
 -0.4789851840539038   12   12    6    6
 -0.4803992043448961   12   12    7    7
 -0.4924260468863178   12   12    8    8
 -0.4928474091541628   12   12    9    9
 -0.4952326051718157   12   12   10   10
 -0.5026428635431142   12   12   11   11
 -0.5028243242928362   12   12   12   12
 -0.4543293745153716   13   13    1    1
 -0.4579055636670065   13   13    2    2
 -0.4713288098760013   13   13    3    3
 -0.4729076479356898   13   13    4    4
 -0.4733263661643008   13   13    5    5
 -0.4801223223182156   13   13    6    6
 -0.4815396995743771   13   13    7    7
 -0.4935950945289171   13   13    8    8
 -0.4940174571349226   13   13    9    9
 -0.496408315744551   13   13   10   10
 -0.5038361664936994   13   13   11   11
 -0.5040180580416359   13   13   12   12
 -0.5052146257827349   13   13   13   13
 -0.4594993233595019   14   14    1    1
 -0.4631162070292728   14   14    2    2
 -0.4766922003422748   14   14    3    3
 -0.4782890044690055   14   14    4    4
 -0.4787124874166582   14   14    5    5
 -0.4855857767733848   14   14    6    6
 -0.487019282786167   14   14    7    7
 -0.4992118596591714   14   14    8    8
 -0.4996390284546711   14   14    9    9
 -0.5020570933542703   14   14   10   10
 -0.5095694678224406   14   14   11   11
 -0.509753429168305   14   14   12   12
 -0.5109636130089941   14   14   13   13
 -0.5167780196677894   14   14   14   14
 -0.4629440197562485   15   15    1    1
 -0.4665880178645209   15   15    2    2
 -0.4802657853758083   15   15    3    3
 -0.4818745601522048   15   15    4    4
 -0.482301217794813   15   15    5    5
 -0.4892260336584945   15   15    6    6
 -0.4906702861354082   15   15    7    7
 -0.5029542662455588   15   15    8    8
 -0.5033846373674513   15   15    9    9
 -0.505820829604836   15   15   10   10
 -0.5133895215645584   15   15   11   11
 -0.5135748620005608   15   15   12   12
 -0.514794118141694   15   15   13   13
 -0.5206521132556808   15   15   14   14
 -0.5245552494896534   15   15   15   15
 -0.4677808386211309   16   16    1    1
 -0.4714629090622157   16   16    2    2
 -0.4852835812900667   16   16    3    3
 -0.486909164474944   16   16    4    4
 -0.4873402798179362   16   16    5    5
 -0.4943374458548048   16   16    6    6
 -0.4957967878184121   16   16    7    7
 -0.5082091104153366   16   16    8    8
 -0.508643978035882   16   16    9    9
 -0.5111056235031809   16   16   10   10
 -0.5187533928253728   16   16   11   11
 -0.518940669690142   16   16   12   12
 -0.5201726645660959   16   16   13   13
 -0.5260918637567498   16   16   14   14
 -0.5300357797873351   16   16   15   15
 -0.5355735704257968   16   16   16   16
 -0.4741934210561478   17   17    1    1
 -0.4779259672292113   17   17    2    2
 -0.4919361004025547   17   17    3    3
 -0.4935839679251334   17   17    4    4
 -0.4940209932209232   17   17    5    5
 -0.5011140800401719   17   17    6    6
 -0.5025934274205681   17   17    7    7
 -0.515175904575549   17   17    8    8
 -0.5156167335870597   17   17    9    9
 -0.5181121245676023   17   17   10   10
 -0.5258647334795624   17   17   11   11
 -0.526054577632759   17   17   12   12
 -0.5273034613336697   17   17   13   13
 -0.533303803977893   17   17   14   14
 -0.5373017852556514   17   17   15   15
 -0.5429154908013627   17   17   16   16
 -0.5503580580306526   17   17   17   17
 -0.481709550020317   18   18    1    1
 -0.4855012583351474   18   18    2    2
 -0.4997334569422572   18   18    3    3
 -0.5014074437323448   18   18    4    4
 -0.5018513960295183   18   18    5    5
 -0.5090569107166375   18   18    6    6
 -0.5105597062622763   18   18    7    7
 -0.5233416200116638   18   18    8    8
 -0.5237894363147618   18   18    9    9
 -0.5263243801013809   18   18   10   10
 -0.5341998705334206   18   18   11   11
 -0.5343927237817988   18   18   12   12
 -0.5356614027192954   18   18   13   13
 -0.5417568528600394   18   18   14   14
 -0.5458182035173498   18   18   15   15
 -0.5515208882284709   18   18   16   16
 -0.5590814227104386   18   18   17   17
 -0.5679430557234053   18   18   18   18
 -0.4818756085728434   19   19    1    1
 -0.4856686239939877   19   19    2    2
 -0.4999057288320409   19   19    3    3
 -0.5015802926914917   19   19    4    4
 -0.5020243980312525   19   19    5    5
 -0.5092323966577892   19   19    6    6
 -0.5107357102584532   19   19    7    7
 -0.5235220302856396   19   19    8    8
 -0.5239700009633542   19   19    9    9
 -0.5265058186149318   19   19   10   10
 -0.5343840239454856   19   19   11   11
 -0.5345769436756914   19   19   12   12
 -0.5358460599617687   19   19   13   13
 -0.5419436113721   19   19   14   14
 -0.5460063620888682   19   19   15   15
 -0.5517110126725128   19   19   16   16
 -0.5592741534790018   19   19   17   17
 -0.5681388413409977   19   19   18   18
 -0.5683346944512859   19   19   19   19
 -0.4856897008221194   20   20    1    1
 -0.4895127383287601   20   20    2    2
 -0.5038625312345405   20   20    3    3
 -0.5055503494295992   20   20    4    4
 -0.5059979699062628   20   20    5    5
 -0.5132630205420839   20   20    6    6
 -0.514778233015923   20   20    7    7
 -0.5276657580081353   20   20    8    8
 -0.528117274417278   20   20    9    9
 -0.5306731633118867   20   20   10   10
 -0.5386137254028884   20   20   11   11
 -0.5388081721114983   20   20   12   12
 -0.5400873335762566   20   20   13   13
 -0.5462331476982918   20   20   14   14
 -0.5503280554816222   20   20   15   15
 -0.5560778589287627   20   20   16   16
 -0.5637008627293877   20   20   17   17
 -0.5726357154568906   20   20   18   18
 -0.5728331187635712   20   20   19   19
 -0.5773671485412468   20   20   20   20
 -0.4954758488066473   21   21    1    1
 -0.4993759165874055   21   21    2    2
 -0.5140148430627995   21   21    3    3
 -0.5157366690587235   21   21    4    4
 -0.5161933086276554   21   21    5    5
 -0.5236047425623542   21   21    6    6
 -0.525150485009285   21   21    7    7
 -0.5382976803764601   21   21    8    8
 -0.538758294376904   21   21    9    9
 -0.5413656818042434   21   21   10   10
 -0.5494662380552433   21   21   11   11
 -0.5496646026650612   21   21   12   12
 -0.5509695379178349   21   21   13   13
 -0.5572391838740264   21   21   14   14
 -0.5614165998379562   21   21   15   15
 -0.5672822559114142   21   21   16   16
 -0.5750588553990659   21   21   17   17
 -0.5841737362203565   21   21   18   18
 -0.5843751170006556   21   21   19   19
 -0.5890005028155201   21   21   20   20
 -0.6008682572145887   21   21   21   21
 -0.5034604353261604   22   22    1    1
 -0.5074233526458063   22   22    2    2
 -0.5222981852209165   22   22    3    3
 -0.5240477584191896   22   22    4    4
 -0.5245117567285228   22   22    5    5
 -0.5320426258196026   22   22    6    6
 -0.5336132778849013   22   22    7    7
 -0.5469723401254085   22   22    8    8
 -0.5474403769141629   22   22    9    9
 -0.5500897823541937   22   22   10   10
 -0.5583208789582665   22   22   11   11
 -0.5585224402110557   22   22   12   12
 -0.5598484044775608   22   22   13   13
 -0.5662190856924929   22   22   14   14
 -0.5704638206574846   22   22   15   15
 -0.5764240016982546   22   22   16   16
 -0.5843259209801731   22   22   17   17
 -0.5935876879810988   22   22   18   18
 -0.5937923140099153   22   22   19   19
 -0.598492237853856   22   22   20   20
 -0.6105512409525734   22   22   21   21
 -0.6203902658409173   22   22   22   22
 -0.5089821513933876   23   23    1    1
 -0.5129885321169111   23   23    2    2
 -0.528026504824322   23   23    3    3
 -0.5297952665144047   23   23    4    4
 -0.530264353737861   23   23    5    5
 -0.5378778178412649   23   23    6    6
 -0.5394656960759633   23   23    7    7
 -0.552971274196251   23   23    8    8
 -0.5534444441912619   23   23    9    9
 -0.5561229070577761   23   23   10   10
 -0.5644442784385356   23   23   11   11
 -0.5646480503198666   23   23   12   12
 -0.565988557135659   23   23   13   13
 -0.5724291089707142   23   23   14   14
 -0.5767203981823016   23   23   15   15
 -0.5827459476713291   23   23   16   16
 -0.5907345314686683   23   23   17   17
 -0.6000978771519918   23   23   18   18
 -0.6003047474223649   23   23   19   19
 -0.6050562178093563   23   23   20   20
 -0.6172474783537294   23   23   21   21
 -0.6271944130161087   23   23   22   22
 -0.6340731848611745   23   23   23   23
 -0.5120085271181564   24   24    1    1
 -0.516038729528418   24   24    2    2
 -0.5311661170717459   24   24    3    3
 -0.5329453957071224   24   24    4    4
 -0.5334172720935818   24   24    5    5
 -0.5410760053736765   24   24    6    6
 -0.5426733250320678   24   24    7    7
 -0.5562592064668437   24   24    8    8
 -0.5567351899007594   24   24    9    9
 -0.5594295787383057   24   24   10   10
 -0.5678004284677156   24   24   11   11
 -0.5680054119637827   24   24   12   12
 -0.5693538893484351   24   24   13   13
 -0.575832736297915   24   24   14   14
 -0.5801495412441158   24   24   15   15
 -0.5862109182698302   24   24   16   16
 -0.5942470016818676   24   24   17   17
 -0.6036660212272336   24   24   18   18
 -0.6038741215351683   24   24   19   19
 -0.6086538438649768   24   24   20   20
 -0.6209175928745443   24   24   21   21
 -0.6309236713821756   24   24   22   22
 -0.6378433439701676   24   24   23   23
 -0.6416359202070987   24   24   24   24
 -0.5251056577133572   25   25    1    1
 -0.5292389523271597   25   25    2    2
 -0.5447532970396081   25   25    3    3
 -0.5465780894573115   25   25    4    4
 -0.5470620363979333   25   25    5    5
 -0.5549166793643916   25   25    6    6
 -0.5565548583113694   25   25    7    7
 -0.5704882653321031   25   25    8    8
 -0.5709764243780741   25   25    9    9
 -0.5737397354319713   25   25   10   10
 -0.5823247107204143   25   25   11   11
 -0.5825349376752827   25   25   12   12
 -0.5839179089862587   25   25   13   13
 -0.590562484239291   25   25   14   14
 -0.5949897126552973   25   25   15   15
 -0.6012061391426669   25   25   16   16
 -0.6094477848224146   25   25   17   17
 -0.6191077420134067   25   25   18   18
 -0.619321165507901   25   25   19   19
 -0.6242231526912162   25   25   20   20
 -0.636800607262035   25   25   21   21
 -0.6470626403290523   25   25   22   22
 -0.6541593174995088   25   25   23   23
 -0.6580489074845253   25   25   24   24
 -0.6748817374529316   25   25   25   25
 -0.5688936074540324   26   26    1    1
 -0.5733715726958389   26   26    2    2
 -0.5901796405600935   26   26    3    3
 -0.5921566002940311   26   26    4    4
 -0.5926809030068709   26   26    5    5
 -0.601190535509995   26   26    6    6
 -0.6029653202930417   26   26    7    7
 -0.6180606179111785   26   26    8    8
 -0.618589483971931   26   26    9    9
 -0.6215832243189973   26   26   10   10
 -0.6308840907065616   26   26   11   11
 -0.6311118482425593   26   26   12   12
 -0.6326101439218186   26   26   13   13
 -0.6398088025730281   26   26   14   14
 -0.6446052124147588   26   26   15   15
 -0.651340019472966   26   26   16   16
 -0.6602689263952926   26   26   17   17
 -0.6707344161753225   26   26   18   18
 -0.6709656368066655   26   26   19   19
 -0.6762763949968428   26   26   20   20
 -0.6899026688681636   26   26   21   21
 -0.7010204409308954   26   26   22   22
 -0.7087089017523205   26   26   23   23
 -0.7129228401199414   26   26   24   24
 -0.7311593401913504   26   26   25   25
 -0.7921298667328887   26   26   26   26
 -0.5693892895215271   27   27    1    1
 -0.5738711564543356   27   27    2    2
 -0.5906938693378352   27   27    3    3
 -0.5926725516143984   27   27    4    4
 -0.5931973111568621   27   27    5    5
 -0.6017143581785842   27   27    6    6
 -0.6034906893474209   27   27    7    7
 -0.6185991396328311   27   27    8    8
 -0.6191284664992932   27   27    9    9
 -0.62212481531899   27   27   10   10
 -0.6314337856342838   27   27   11   11
 -0.6316617416174511   27   27   12   12
 -0.6331613427750816   27   27   13   13
 -0.6403662736816947   27   27   14   14
 -0.6451668626780437   27   27   15   15
 -0.6519075378336299   27   27   16   16
 -0.6608442245920905   27   27   17   17
 -0.6713188330465852   27   27   18   18
 -0.671550255142524   27   27   19   19
 -0.676865640643617   27   27   20   20
 -0.6905037872087357   27   27   21   21
 -0.7016312462852953   27   27   22   22
 -0.7093264061311176   27   27   23   23
 -0.7135440161407731   27   27   24   24
 -0.7317964058371329   27   27   25   25
 -0.792820056541531   27   27   26   26
 -0.7935108477187013   27   27   27   27
 -0.5723005167018562   28   28    1    1
 -0.5768052989459878   28   28    2    2
 -0.5937140245801565   28   28    3    3
 -0.5957028236498009   28   28    4    4
 -0.5962302662322713   28   28    5    5
 -0.6047908600140784   28   28    6    6
 -0.6065762733761969   28   28    7    7
 -0.6217619715690282   28   28    8    8
 -0.6222940048277411   28   28    9    9
 -0.6253056736618573   28   28   10   10
 -0.6346622397572289   28   28   11   11
 -0.6348913612552143   28   28   12   12
 -0.6363986297148648   28   28   13   13
 -0.6436403986707242   28   28   14   14
 -0.6484655325705776   28   28   15   15
 -0.6552406720848861   28   28   16   16
 -0.6642230511769963   28   28   17   17
 -0.6747512151960182   28   28   18   18
 -0.6749838205286427   28   28   19   19
 -0.6803263830332893   28   28   20   20
 -0.6940342599985055   28   28   21   21
 -0.7052186125957336   28   28   22   22
 -0.7129531169794887   28   28   23   23
 -0.7171922911827848   28   28   24   24
 -0.7355380034160589   28   28   25   25
 -0.7968736615885336   28   28   26   26
 -0.7975679847078881   28   28   27   27
 -0.8016458654091444   28   28   28   28
 -0.6388357907985508   29   29    1    1
 -0.6438642960039799   29   29    2    2
 -0.6627388187357622   29   29    3    3
 -0.6649588342508933   29   29    4    4
 -0.6655475969541232   29   29    5    5
 -0.6751034396254222   29   29    6    6
 -0.6770964239471284   29   29    7    7
 -0.6940476012232785   29   29    8    8
 -0.694641488311691   29   29    9    9
 -0.6980032917438348   29   29   10   10
 -0.7084476459358293   29   29   11   11
 -0.7087034049454453   29   29   12   12
 -0.7103859074249392   29   29   13   13
 -0.7184695995808682   29   29   14   14
 -0.723855700310579   29   29   15   15
 -0.7314185129991592   29   29   16   16
 -0.7414451774579472   29   29   17   17
 -0.7531973387621324   29   29   18   18
 -0.7534569866346653   29   29   19   19
 -0.7594206718716028   29   29   20   20
 -0.7747222174157341   29   29   21   21
 -0.787206855341969   29   29   22   22
 -0.7958405680160486   29   29   23   23
 -0.8005725857680197   29   29   24   24
 -0.8210511581967983   29   29   25   25
 -0.8895176588363134   29   29   26   26
 -0.89029270349568   29   29   27   27
 -0.8948446758712814   29   29   28   28
 -0.9988787175076279   29   29   29   29
 -0.6439522045456382   30   30    1    1
 -0.6490209828752893   30   30    2    2
 -0.6680466710066399   30   30    3    3
 -0.6702844665492272   30   30    4    4
 -0.6708779446325783   30   30    5    5
 -0.6805103197172339   30   30    6    6
 -0.6825192657814226   30   30    7    7
 -0.6996062044499277   30   30    8    8
 -0.700204847959485   30   30    9    9
 -0.7035935759590104   30   30   10   10
 -0.7141215786223915   30   30   11   11
 -0.7143793859970672   30   30   12   12
 -0.716075363580711   30   30   13   13
 -0.72422379774745   30   30   14   14
 -0.7296530355715655   30   30   15   15
 -0.7372764185653223   30   30   16   16
 -0.7473833862328744   30   30   17   17
 -0.7592296701903622   30   30   18   18
 -0.7594913975737234   30   30   19   19
 -0.7655028457594014   30   30   20   20
 -0.7809269408524173   30   30   21   21
 -0.79351156781188   30   30   22   22
 -0.802214427592071   30   30   23   23
 -0.8069843439105068   30   30   24   24
 -0.8276269285173826   30   30   25   25
 -0.8966417749918252   30   30   26   26
 -0.8974230269570549   30   30   27   27
 -0.9020114559219307   30   30   28   28
 -1.006878702598539   30   30   29   29
 -1.014942759293273   30   30   30   30
 -0.6471905119763204   31   31    1    1
 -0.6522847801830363   31   31    2    2
 -0.6714061447121299   31   31    3    3
 -0.6736551936829728   31   31    4    4
 -0.6742516562494481   31   31    5    5
 -0.6839324706306718   31   31    6    6
 -0.6859515192846516   31   31    7    7
 -0.7031243847658413   31   31    8    8
 -0.7037260387344227   31   31    9    9
 -0.7071318079723878   31   31   10   10
 -0.7177127538651179   31   31   11   11
 -0.7179718577017534   31   31   12   12
 -0.7196763640190091   31   31   13   13
 -0.7278657750388816   31   31   14   14
 -0.7333223154190945   31   31   15   15
 -0.7409840348881696   31   31   16   16
 -0.7511418284839015   31   31   17   17
 -0.7630476850449066   31   31   18   18
 -0.7633107286031706   31   31   19   19
 -0.7693524071649411   31   31   20   20
 -0.7848540669613598   31   31   21   21
 -0.7975019795042984   31   31   22   22
 -0.8062486042336509   31   31   23   23
 -0.8110425075115981   31   31   24   24
 -0.8317888995666806   31   31   25   25
 -0.9011508079637128   31   31   26   26
 -0.9019359886895345   31   31   27   27
 -0.9065474919501534   31   31   28   28
 -1.011942095132029   31   31   29   29
 -1.020046704362388   31   31   30   30
 -1.0251763161551   31   31   31   31
 -0.6492068016531966   32   32    1    1
 -0.6543169407977683   32   32    2    2
 -0.6734978769818759   32   32    3    3
 -0.6757539327523222   32   32    4    4
 -0.6763522535680969   32   32    5    5
 -0.6860632280424298   32   32    6    6
 -0.6880885669415273   32   32    7    7
 -0.7053149336263831   32   32    8    8
 -0.7059184620178177   32   32    9    9
 -0.7093348417595359   32   32   10   10
 -0.7199487520600877   32   32   11   11
 -0.7202086631217696   32   32   12   12
 -0.7219184797432218   32   32   13   13
 -0.7301334044636096   32   32   14   14
 -0.7356069444225193   32   32   15   15
 -0.743292533595471   32   32   16   16
 -0.7534819732892033   32   32   17   17
 -0.7654249219509641   32   32   18   18
 -0.7656887850082802   32   32   19   19
 -0.7717492861174917   32   32   20   20
 -0.7872992405598356   32   32   21   21
 -0.7999865570418345   32   32   22   22
 -0.8087604314431505   32   32   23   23
 -0.8135692698870379   32   32   24   24
 -0.834380296289131   32   32   25   25
 -0.9039582982432867   32   32   26   26
 -0.9047459251603961   32   32   27   27
 -0.9093717953288222   32   32   28   28
 -1.015094750126585   32   32   29   29
 -1.023224608861725   32   32   30   30
 -1.028370201703466   32   32   31   31
 -1.031574037642547   32   32   32   32
 -0.6653490139235866   33   33    1    1
 -0.6705862141996696   33   33    2    2
 -0.6902440750596128   33   33    3    3
 -0.6925562265626479   33   33    4    4
 -0.6931694243353329   33   33    5    5
 -0.7031218574803357   33   33    6    6
 -0.7051975554489091   33   33    7    7
 -0.72285224738693   33   33    8    8
 -0.7234707822191179   33   33    9    9
 -0.726972108586236   33   33   10   10
 -0.7378499286188702   33   33   11   11
 -0.7381163022430489   33   33   12   12
 -0.7398686326255656   33   33   13   13
 -0.7482878174650468   33   33   14   14
 -0.7538974543404739   33   33   15   15
 -0.7617741419608492   33   33   16   16
 -0.7722169371308852   33   33   17   17
 -0.7844568414190223   33   33   18   18
 -0.7847272653032901   33   33   19   19
 -0.7909384578333566   33   33   20   20
 -0.8068750543514827   33   33   21   21
 -0.819877834804704   33   33   22   22
 -0.8288698673378496   33   33   23   23
 -0.833798275217451   33   33   24   24
 -0.8551267576980875   33   33   25   25
 -0.9264347829268508   33   33   26   26
 -0.9272419938052704   33   33   27   27
 -0.9319828839919768   33   33   28   28
 -1.040334588787202   33   33   29   29
 -1.048666592516967   33   33   30   30
 -1.053940128029206   33   33   31   31
 -1.057223625795114   33   33   32   32
 -1.083510978517541   33   33   33   33
 -0.2042846445980531    1    1  0  0
 -0.207513296861055    2    2  0  0
 -0.2198578937366935    3    3  0  0
 -0.2213333027815413    4    4  0  0
 -0.2217254187358465    5    5  0  0
 -0.2281381343929753    6    6  0  0
 -0.2294871035324108    7    7  0  0
 -0.2411214015880304    8    8  0  0
 -0.2415342267416947    9    9  0  0
 -0.2438777534978907   10   10  0  0
 -0.2512307341397457   11   11  0  0
 -0.2514121621464181   12   12  0  0
 -0.2526073128913675   13   13  0  0
 -0.2583890098338947   14   14  0  0
 -0.2622776247448267   15   15  0  0
 -0.2677867852128984   16   16  0  0
 -0.2751790290153263   17   17  0  0
 -0.2839715278617027   18   18  0  0
 -0.284167347225643   19   19  0  0
 -0.2886835742706234   20   20  0  0
 -0.3004341286072943   21   21  0  0
 -0.3101951329204586   22   22  0  0
 -0.3170365924305872   23   23  0  0
 -0.3208179601035493   24   24  0  0
 -0.3374408687264658   25   25  0  0
 -0.3960649333664443   26   26  0  0
 -0.3967554238593506   27   27  0  0
 -0.4008229327045722   28   28  0  0
 -0.499439358753814   29   29  0  0
 -0.5074713796466366   30   30  0  0
 -0.5125881580775498   31   31  0  0
 -0.5157870188212736   32   32  0  0
 -0.5417554892587703   33   33  0  0
 -4998.798610965721  0  0  0  0
