 &FCI NORB=  16,NELEC=18,MS2=0,
  ORBSYM=1,1,1,1,1,1,1,1,1,1,1,1,1,1,1,1,
  ISYM=1,
 &END
 -0.8946152874345584    1    1    1    1
 -0.90843008974763    2    2    1    1
 -0.9224582226013595    2    2    2    2
 -0.9112427922897203    3    3    1    1
 -0.925314359377282    3    3    2    2
 -0.9281793393908527    3    3    3    3
 -0.9259379687668428    4    4    1    1
 -0.9402364612835118    4    4    2    2
 -0.9431476434588545    4    4    3    3
 -0.958357334204154    4    4    4    4
 -0.9269611242628873    5    5    1    1
 -0.9412754165217607    5    5    2    2
 -0.9441898155346703    5    5    3    3
 -0.9594163128903523    5    5    4    4
 -0.960476461741183    5    5    5    5
 -0.9279226111322961    6    6    1    1
 -0.9422517508358913    6    6    2    2
 -0.9451691727979945    6    6    3    3
 -0.9604114637796349    6    6    4    4
 -0.9614727122657933    6    6    5    5
 -0.9624699961474377    6    6    6    6
 -0.9299427075054851    7    7    1    1
 -0.944303041882859    7    7    2    2
 -0.9472268151003946    7    7    3    3
 -0.9625022886948538    7    7    4    4
 -0.9635658475290868    7    7    5    5
 -0.9645653025072517    7    7    6    6
 -0.9666651703689919    7    7    7    7
 -0.9774655022970117    8    8    1    1
 -0.9925596918014227    8    8    2    2
 -0.995632878389817    8    8    3    3
 -1.011688973404407    8    8    4    4
 -1.012806883208673    8    8    5    5
 -1.013857413262159    8    8    6    6
 -1.016064590519067    8    8    7    7
 -1.067988465657245    8    8    8    8
 -0.9834896062945571    9    9    1    1
 -0.9986768210434596    9    9    2    2
 -1.00176894763083    9    9    3    3
 -1.01792399609793    9    9    4    4
 -1.019048795562143    9    9    5    5
 -1.020105800015268    9    9    6    6
 -1.022326580069722    9    9    7    7
 -1.07457046120612    9    9    8    8
 -1.081193021486544    9    9    9    9
 -1.015302589830255   10   10    1    1
 -1.030981066113258   10   10    2    2
 -1.034173213861588   10   10    3    3
 -1.050850830424592   10   10    4    4
 -1.052012013828815   10   10    5    5
 -1.053103209253608   10   10    6    6
 -1.055395824982641   10   10    7    7
 -1.109329641345396   10   10    8    8
 -1.11616642188785   10   10    9    9
 -1.152271108480727   10   10   10   10
 -1.045596791012843   11   11    1    1
 -1.061743075533027   11   11    2    2
 -1.06503046933614   11   11    3    3
 -1.082205706092835   11   11    4    4
 -1.083401536432868   11   11    5    5
 -1.084525290519541   11   11    6    6
 -1.086886312419133   11   11    7    7
 -1.142429384879335   11   11    8    8
 -1.149470158603003   11   11    9    9
 -1.186652122699389   11   11   10   10
 -1.22205898416008   11   11   11   11
 -1.454723906193974   12   12    1    1
 -1.477188001617381   12   12    2    2
 -1.481761705740776   12   12    3    3
 -1.505657367739033   12   12    4    4
 -1.507321109439801   12   12    5    5
 -1.508884572477004   12   12    6    6
 -1.512169428580146   12   12    7    7
 -1.589445713306547   12   12    8    8
 -1.599241441394046   12   12    9    9
 -1.65097217786452   12   12   10   10
 -1.700233239349102   12   12   11   11
 -2.365510262317149   12   12   12   12
 -1.628358313621428   13   13    1    1
 -1.653503701268487   13   13    2    2
 -1.658623318194876   13   13    3    3
 -1.685371142788033   13   13    4    4
 -1.687233467053572   13   13    5    5
 -1.68898354349339   13   13    6    6
 -1.692660476773875   13   13    7    7
 -1.779160382456481   13   13    8    8
 -1.790125318965283   13   13    9    9
 -1.848030585004284   13   13   10   10
 -1.903171398092385   13   13   11   11
 -2.647855228885831   13   13   12   12
 -2.963900611562021   13   13   13   13
 -1.632998421281385   14   14    1    1
 -1.658215462264725   14   14    2    2
 -1.663349667855978   14   14    3    3
 -1.690173712028539   14   14    4    4
 -1.692041343102179   14   14    5    5
 -1.69379640649298   14   14    6    6
 -1.697483817422111   14   14    7    7
 -1.784230209932332   14   14    8    8
 -1.795226391705434   14   14    9    9
 -1.853296662379011   14   14   10   10
 -1.908594602622141   14   14   11   11
 -2.655400456018724   14   14   12   12
 -2.972346429546929   14   14   13   13
 -2.980816314412202   14   14   14   14
 -1.641437781168655   15   15    1    1
 -1.666785144191121   15   15    2    2
 -1.671945883432472   15   15    3    3
 -1.698908554660304   15   15    4    4
 -1.700785837678834   15   15    5    5
 -1.702549971263081   15   15    6    6
 -1.706256438786192   15   15    7    7
 -1.793451137930256   15   15    8    8
 -1.804504148132682   15   15    9    9
 -1.862874526820192   15   15   10   10
 -1.918458247632766   15   15   11   11
 -2.669123604676504   15   15   12   12
 -2.987707559662969   15   15   13   13
 -2.996221217017946   15   15   14   14
 -3.011705732387195   15   15   15   15
 -1.644181670662418   16   16    1    1
 -1.669571405295852   16   16    2    2
 -1.67474077142416   16   16    3    3
 -1.701748514473266   16   16    4    4
 -1.70362893562911   16   16    5    5
 -1.705396018205799   16   16    6    6
 -1.709108681600243   16   16    7    7
 -1.79644913870214   16   16    8    8
 -1.807520625534577   16   16    9    9
 -1.865988578355365   16   16   10   10
 -1.92166521501849   16   16   11   11
 -2.673585412672182   16   16   12   12
 -2.992701924650448   16   16   13   13
 -3.001229813757149   16   16   14   14
 -3.016740213628098   16   16   15   15
 -3.021783110698307   16   16   16   16
 -0.4473076437172792    1    1  0  0
 -0.4612291113006797    2    2  0  0
 -0.4640896696954264    3    3  0  0
 -0.479178667102077    4    4  0  0
 -0.4802382308705915    5    5  0  0
 -0.4812349980737188    6    6  0  0
 -0.483332585184496    7    7  0  0
 -0.5339942328286225    8    8  0  0
 -0.5405965107432718    9    9  0  0
 -0.5761355542403636   10   10  0  0
 -0.61102949208004   11   11  0  0
 -1.182755131158575   12   12  0  0
 -1.481950305781011   13   13  0  0
 -1.490408157206101   14   14  0  0
 -1.505852866193597   15   15  0  0
 -1.510891555349153   16   16  0  0
 -2888.273851782269  0  0  0  0
