 &FCI NORB=   7,NELEC=11,MS2=1,
  ORBSYM=1,1,1,1,1,1,1,
  ISYM=1,
 &END
 -1.319676366448225    1    1    1    1
 -1.561176298641177    2    2    1    1
 -1.846870564181302    2    2    2    2
 -2.055596744651073    3    3    1    1
 -2.4317696360285    3    3    2    2
 -3.201904712435316    3    3    3    3
 -2.066985599739986    4    4    1    1
 -2.44524264432471    4    4    2    2
 -3.219644587181334    4    4    3    3
 -3.237482748161413    4    4    4    4
 -2.068480593130527    5    5    1    1
 -2.447011220550881    5    5    2    2
 -3.22197326686751    5    5    3    3
 -3.239824329694978    5    5    4    4
 -3.24216760482956    5    5    5    5
 -2.069627191657206    6    6    1    1
 -2.448367645875618    6    6    2    2
 -3.223759268540939    6    6    3    3
 -3.241620226555437    6    6    4    4
 -3.24396480061244    6    6    5    5
 -3.245762992615463    6    6    6    6
 -2.187332073719741    7    7    1    1
 -2.5876124461784    7    7    2    2
 -3.407102532502299    7    7    3    3
 -3.425979287934368    7    7    4    4
 -3.428457203790308    7    7    5    5
 -3.43035766347637    7    7    6    6
 -3.625450695612506    7    7    7    7
 -0.6598381832241126    1    1  0  0
 -0.9234352820906512    2    2  0  0
 -1.600952356217658    3    3  0  0
 -1.618741374080706    4    4  0  0
 -1.62108380241478    5    5  0  0
 -1.622881496307732    6    6  0  0
 -1.812725347806253    7    7  0  0
 -2885.478832556892  0  0  0  0
