 &FCI NORB=   7,NELEC=10,MS2=0,
  ORBSYM=1,1,1,1,1,1,1,
  ISYM=1,
 &END
 -3.768971108919748    1    1    1    1
 -3.660176649270451    2    2    1    1
 -3.554522631430956    2    2    2    2
 -3.659221006759812    3    3    1    1
 -3.553594574329586    3    3    2    2
 -3.552666759536416    3    3    3    3
 -3.64093945300218    4    4    1    1
 -3.535840732699516    4    4    2    2
 -3.53491755329076    4    4    3    3
 -3.517257022494751    4    4    4    4
 -3.629544772300026    5    5    1    1
 -3.524774968853991    5    5    2    2
 -3.523854678626647    5    5    3    3
 -3.506249418211278    5    5    4    4
 -3.49527626331586    5    5    5    5
 -2.722480042647348    6    6    1    1
 -2.643893410755997    6    6    2    2
 -2.643203111576743    6    6    3    3
 -2.629997606993291    6    6    4    4
 -2.621766768945598    6    6    5    5
 -1.966557282721513    6    6    6    6
 -2.267148391780459    7    7    1    1
 -2.201705283542036    7    7    2    2
 -2.201130436105295    7    7    3    3
 -2.190133536950835    7    7    4    4
 -2.183279297084788    7    7    5    5
 -1.637652842637844    7    7    6    6
 -1.363757291264014    7    7    7    7
 -1.884485554459874    1    1  0  0
 -1.777261315715478    2    2  0  0
 -1.776333379768208    3    3  0  0
 -1.758628511247376    4    4  0  0
 -1.74763813165793    5    5  0  0
 -0.9832786413607563    6    6  0  0
 -0.6818786456320072    7    7  0  0
 -2966.682693370686  0  0  0  0
