 &FCI NORB=  73,NELEC=99,MS2=3,
  ORBSYM=1,1,1,1,1,1,1,1,1,1,1,1,1,1,1,1,1,1,1,1,1,1,1,1,1,1,1,1,1,1,1,1,1,1,1,1,1,1,1,1,1,1,1,1,1,1,1,1,1,1,1,1,1,1,1,1,1,1,1,1,1,1,1,1,1,1,1,1,1,1,1,1,1,
  ISYM=1,
 &END
 -0.6280804519321248    1    1    1    1
 -0.6248416337936127    2    2    1    1
 -0.6216195172462774    2    2    2    2
 -0.6197732035938497    3    3    1    1
 -0.6165772233856002    3    3    2    2
 -0.611575830311774    3    3    3    3
 -0.6190802088629088    4    4    1    1
 -0.6158878022158131    4    4    2    2
 -0.610892001411913    4    4    3    3
 -0.6102089371301765    4    4    4    4
 -0.6155129196423109    5    5    1    1
 -0.6123389084109575    5    5    2    2
 -0.6073718946141383    5    5    3    3
 -0.6066927663132557    5    5    4    4
 -0.6031968565191773    5    5    5    5
 -0.5519316649368198    6    6    1    1
 -0.5490855227234815    6    6    2    2
 -0.5446315915269833    6    6    3    3
 -0.5440226158225746    6    6    4    4
 -0.5408878265248358    6    6    5    5
 -0.4850151948254718    6    6    6    6
 -0.5442839287444827    7    7    1    1
 -0.5414772235596688    7    7    2    2
 -0.5370850074140971    7    7    3    3
 -0.5364844698657696    7    7    4    4
 -0.5333931171800079    7    7    5    5
 -0.4782946739803328    7    7    6    6
 -0.4716672747547056    7    7    7    7
 -0.5437169452528559    8    8    1    1
 -0.5409131638279061    8    8    2    2
 -0.5365255230774816    8    8    3    3
 -0.5359256111123433    8    8    4    4
 -0.5328374787052763    8    8    5    5
 -0.4777964318497863    8    8    6    6
 -0.4711759364215246    8    8    7    7
 -0.4706851099181238    8    8    8    8
 -0.5171248038932765    9    9    1    1
 -0.514458149980435    9    9    2    2
 -0.5102851002301422    9    9    3    3
 -0.5097145287958068    9    9    4    4
 -0.5067774309559402    9    9    5    5
 -0.4544283349608004    9    9    6    6
 -0.4481316351247782    9    9    7    7
 -0.4476648139937968    9    9    8    8
 -0.4257703960997641    9    9    9    9
 -0.4972500736025492   10   10    1    1
 -0.4946859075744455   10   10    2    2
 -0.4906732412318956   10   10    3    3
 -0.4901245986497129   10   10    4    4
 -0.4873003827040532   10   10    5    5
 -0.4369632268750662   10   10    6    6
 -0.4309085289890963   10   10    7    7
 -0.4304596492602724   10   10    8    8
 -0.4094067026073025   10   10    9    9
 -0.3936719172474121   10   10   10   10
 -0.4958564938487149   11   11    1    1
 -0.4932995140837249   11   11    2    2
 -0.4892980935325197   11   11    3    3
 -0.4887509885613606   11   11    4    4
 -0.4859346876877566   11   11    5    5
 -0.4357386054250753   11   11    6    6
 -0.4297008762734253   11   11    7    7
 -0.4292532545629209   11   11    8    8
 -0.4082593103350318   11   11    9    9
 -0.3925686228636537   11   11   10   10
 -0.3914684205432198   11   11   11   11
 -0.4957016607270919   12   12    1    1
 -0.4931454793889932   12   12    2    2
 -0.4891453082969413   12   12    3    3
 -0.4885983741614403   12   12    4    4
 -0.485782952688754   12   12    5    5
 -0.4356025443482788   12   12    6    6
 -0.429566700501074   12   12    7    7
 -0.4291192185621923   12   12    8    8
 -0.4081318297751622   12   12    9    9
 -0.392446041782064   12   12   10   10
 -0.3913461830040902   12   12   11   11
 -0.3912239836341083   12   12   12   12
 -0.4919746073236457   13   13    1    1
 -0.4894376452561502   13   13    2    2
 -0.4854675504225904   13   13    3    3
 -0.4849247285443052   13   13    4    4
 -0.4821304755021756   13   13    5    5
 -0.4323273607568385   13   13    6    6
 -0.4263368988684523   13   13    7    7
 -0.4258927814312767   13   13    8    8
 -0.4050631914272755   13   13    9    9
 -0.3894953408432224   13   13   10   10
 -0.3884037516207625   13   13   11   11
 -0.3882824710364411   13   13   12   12
 -0.3853630749160969   13   13   13   13
 -0.4741854106676849   14   14    1    1
 -0.4717401820280037   14   14    2    2
 -0.4679136409402789   14   14    3    3
 -0.4673904468334238   14   14    4    4
 -0.4646972305442749   14   14    5    5
 -0.4166949351686688   14   14    6    6
 -0.4109210810137025   14   14    7    7
 -0.4104930223167763   14   14    8    8
 -0.3904166046662426   14   14    9    9
 -0.3754116684103432   14   14   10   10
 -0.3743595497114771   14   14   11   11
 -0.3742426544839057   14   14   12   12
 -0.3714288201363203   14   14   13   13
 -0.3579984108697913   14   14   14   14
 -0.473783196627629   15   15    1    1
 -0.4713400420823167   15   15    2    2
 -0.4675167467472356   15   15    3    3
 -0.4669939964246276   15   15    4    4
 -0.4643030645781883   15   15    5    5
 -0.4163414857592721   15   15    6    6
 -0.4105725291088559   15   15    7    7
 -0.4101448335003209   15   15    8    8
 -0.3900854450895559   15   15    9    9
 -0.3750932363362252   15   15   10   10
 -0.3740420100665712   15   15   11   11
 -0.3739252139919907   15   15   12   12
 -0.3711137663978895   15   15   13   13
 -0.3576947490870157   15   15   14   14
 -0.3573913448765519   15   15   15   15
 -0.472967579386093   16   16    1    1
 -0.4705286307285898   16   16    2    2
 -0.4667119171921394   16   16    3    3
 -0.4661900667836254   16   16    4    4
 -0.4635037673733413   16   16    5    5
 -0.4156247543585617   16   16    6    6
 -0.409865728960548   16   16    7    7
 -0.4094387696295232   16   16    8    8
 -0.3894139134334061   16   16    9    9
 -0.374447513750627   16   16   10   10
 -0.373398097165817   16   16   11   11
 -0.373281502155548   16   16   12   12
 -0.3704748944653262   16   16   13   13
 -0.3570789779777006   16   16   14   14
 -0.3567760960772447   16   16   15   15
 -0.3561619064280555   16   16   16   16
 -0.4727194577076962   17   17    1    1
 -0.4702817885375423   17   17    2    2
 -0.4664670772723042   17   17    3    3
 -0.4659455006296991   17   17    4    4
 -0.4632606104684786   17   17    5    5
 -0.4154067150761048   17   17    6    6
 -0.4096507108979589   17   17    7    7
 -0.4092239755524048   17   17    8    8
 -0.3892096245180483   17   17    9    9
 -0.3742510762998742   17   17   10   10
 -0.3732022102454086   17   17   11   11
 -0.3730856764015935   17   17   12   12
 -0.3702805410748932   17   17   13   13
 -0.3568916521668045   17   17   14   14
 -0.356588929160042   17   17   15   15
 -0.3559750617184906   17   17   16   16
 -0.3557883150288008   17   17   17   17
 -0.4696570516334364   18   18    1    1
 -0.4672351743515831   18   18    2    2
 -0.4634451758303622   18   18    3    3
 -0.4629269781040519   18   18    4    4
 -0.4602594813963996   18   18    5    5
 -0.4127155966404342   18   18    6    6
 -0.4069968814333074   18   18    7    7
 -0.4065729105961589   18   18    8    8
 -0.3866882180075901   18   18    9    9
 -0.3718265753603175   18   18   10   10
 -0.3707845041473249   18   18   11   11
 -0.3706687252416561   18   18   12   12
 -0.3678817623496283   18   18   13   13
 -0.3545796103296689   18   18   14   14
 -0.3542788484454276   18   18   15   15
 -0.3536689578052352   18   18   16   16
 -0.353483420911731   18   18   17   17
 -0.3511934585298153   18   18   18   18
 -0.4691237877348132   19   19    1    1
 -0.4667046603312315   19   19    2    2
 -0.4629189650976545   19   19    3    3
 -0.4624013557499042   19   19    4    4
 -0.4597368878048116   19   19    5    5
 -0.4122469859226315   19   19    6    6
 -0.4065347639308325   19   19    7    7
 -0.406111274483968   19   19    8    8
 -0.3862491596223935   19   19    9    9
 -0.3714043913677665   19   19   10   10
 -0.3703635033563371   19   19   11   11
 -0.3702478559098052   19   19   12   12
 -0.3674640574261301   19   19   13   13
 -0.3541770091024137   19   19   14   14
 -0.3538765887130023   19   19   15   15
 -0.353267390562488   19   19   16   16
 -0.3530820643336099   19   19   17   17
 -0.3507947020494958   19   19   18   18
 -0.3503963983302593   19   19   19   19
 -0.4652789583337877   20   20    1    1
 -0.4628796575354844   20   20    2    2
 -0.4591249889791255   20   20    3    3
 -0.4586116218371438   20   20    4    4
 -0.455968991251318   20   20    5    5
 -0.408868305554252   20   20    6    6
 -0.4032028996046863   20   20    7    7
 -0.4027828809787841   20   20    8    8
 -0.3830835513887795   20   20    9    9
 -0.3683604474004485   20   20   10   10
 -0.3673280902649503   20   20   11   11
 -0.3672133906379794   20   20   12   12
 -0.3644524075188977   20   20   13   13
 -0.3512742567513988   20   20   14   14
 -0.3509762985375924   20   20   15   15
 -0.3503720932333618   20   20   16   16
 -0.3501882858951309   20   20   17   17
 -0.3479196703000373   20   20   18   18
 -0.3475246309853999   20   20   19   19
 -0.34467639997745   20   20   20   20
 -0.4643974950403072   21   21    1    1
 -0.4620027396776954   21   21    2    2
 -0.4582551842788355   21   21    3    3
 -0.4577427897024161   21   21    4    4
 -0.455105165536541   21   21    5    5
 -0.4080937113097491   21   21    6    6
 -0.4024390383780811   21   21    7    7
 -0.4020198154705208   21   21    8    8
 -0.382357805934709   21   21    9    9
 -0.3676625946234471   21   21   10   10
 -0.3666321932714727   21   21   11   11
 -0.3665177109410487   21   21   12   12
 -0.363761958458835   21   21   13   13
 -0.3506087734800731   21   21   14   14
 -0.3503113797431761   21   21   15   15
 -0.3497083190959043   21   21   16   16
 -0.3495248599776365   21   21   17   17
 -0.3472605422372777   21   21   18   18
 -0.3468662513180902   21   21   19   19
 -0.3440234162366912   21   21   20   20
 -0.3433716695628327   21   21   21   21
 -0.4633515839325651   22   22    1    1
 -0.4609622220125555   22   22    2    2
 -0.4572231068181765   22   22    3    3
 -0.4567118662513819   22   22    4    4
 -0.454080182514649   22   22    5    5
 -0.407174606985938   22   22    6    6
 -0.4015326694486102   22   22    7    7
 -0.4011143907104313   22   22    8    8
 -0.3814966637437411   22   22    9    9
 -0.3668345488313729   22   22   10   10
 -0.3658064681383835   22   22   11   11
 -0.3656922436438485   22   22   12   12
 -0.362942697638117   22   22   13   13
 -0.3498191361229146   22   22   14   14
 -0.3495224121730345   22   22   15   15
 -0.3489207097325496   22   22   16   16
 -0.3487376637989602   22   22   17   17
 -0.3464784457309755   22   22   18   18
 -0.3460850428296099   22   22   19   19
 -0.3432486103511985   22   22   20   20
 -0.3425983315342791   22   22   21   21
 -0.3418267352094227   22   22   22   22
 -0.463036988048082   23   23    1    1
 -0.460649248402502   23   23    2    2
 -0.4569126719072287   23   23    3    3
 -0.4564017784508874   23   23    4    4
 -0.4537718815147214   23   23    5    5
 -0.4068981528632681   23   23    6    6
 -0.4012600459599367   23   23    7    7
 -0.4008420512151101   23   23    8    8
 -0.3812376438449869   23   23    9    9
 -0.3665854838808031   23   23   10   10
 -0.3655581012105812   23   23   11   11
 -0.3654439542695869   23   23   12   12
 -0.3626962750878559   23   23   13   13
 -0.3495816239089632   23   23   14   14
 -0.3492851014219391   23   23   15   15
 -0.348683807511646   23   23   16   16
 -0.3485008858584074   23   23   17   17
 -0.3462432017027497   23   23   18   18
 -0.3458500659051085   23   23   19   19
 -0.343015559242892   23   23   20   20
 -0.342365721937444   23   23   21   21
 -0.3415946494934519   23   23   22   22
 -0.3413627213537442   23   23   23   23
 -0.462938710584444   24   24    1    1
 -0.4605514777255836   24   24    2    2
 -0.4568156943014259   24   24    3    3
 -0.4563049092798627   24   24    4    4
 -0.4536755705271835   24   24    5    5
 -0.406811790608298   24   24    6    6
 -0.4011748803671351   24   24    7    7
 -0.4007569743397639   24   24    8    8
 -0.3811567279146239   24   24    9    9
 -0.3665076778037678   24   24   10   10
 -0.3654805131907758   24   24   11   11
 -0.3653663904769429   24   24   12   12
 -0.3626192944774368   24   24   13   13
 -0.3495074268227282   24   24   14   14
 -0.3492109672712334   24   24   15   15
 -0.3486098009827976   24   24   16   16
 -0.3484269181538356   24   24   17   17
 -0.34616971318122   24   24   18   18
 -0.3457766608248374   24   24   19   19
 -0.3429427557735777   24   24   20   20
 -0.3422930563930985   24   24   21   21
 -0.341522147605674   24   24   22   22
 -0.3412902686916435   24   24   23   23
 -0.3412178314072859   24   24   24   24
 -0.4616633346395513   25   25    1    1
 -0.4592826785030376   25   25    2    2
 -0.4555571869991829   25   25    3    3
 -0.4550478091680632   25   25    4    4
 -0.4524257141289026   25   25    5    5
 -0.405691041878546   25   25    6    6
 -0.4000696610791012   25   25    7    7
 -0.3996529063645979   25   25    8    8
 -0.3801066577629992   25   25    9    9
 -0.3654979651459101   25   25   10   10
 -0.3644736303266012   25   25   11   11
 -0.3643598220158646   25   25   12   12
 -0.3616202941459531   25   25   13   13
 -0.3485445491144278   25   25   14   14
 -0.3482489062960599   25   25   15   15
 -0.3476493961945136   25   25   16   16
 -0.3474670171997644   25   25   17   17
 -0.3452160307283434   25   25   18   18
 -0.3448240612140496   25   25   19   19
 -0.3419979634475338   25   25   20   20
 -0.3413500539604948   25   25   21   21
 -0.3405812689931369   25   25   22   22
 -0.3403500288953953   25   25   23   23
 -0.3402777911725949   25   25   24   24
 -0.339340340707727   25   25   25   25
 -0.4615114661008274   26   26    1    1
 -0.4591315931037608   26   26    2    2
 -0.4554073271357204   26   26    3    3
 -0.4548981168692762   26   26    4    4
 -0.452276884393183   26   26    5    5
 -0.4055575859571405   26   26    6    6
 -0.3999380543643005   26   26    7    7
 -0.3995214367452188   26   26    8    8
 -0.3799816180677444   26   26    9    9
 -0.3653777311188424   26   26   10   10
 -0.3643537332642012   26   26   11   11
 -0.3642399623917893   26   26   12   12
 -0.3615013357155902   26   26   13   13
 -0.3484298920745841   26   26   14   14
 -0.3481343465107292   26   26   15   15
 -0.3475350336237248   26   26   16   16
 -0.3473527146242781   26   26   17   17
 -0.3451024686362364   26   26   18   18
 -0.3447106280640372   26   26   19   19
 -0.3418854599692234   26   26   20   20
 -0.3412377636181639   26   26   21   21
 -0.3404692315499228   26   26   22   22
 -0.3402380675208077   26   26   23   23
 -0.3401658535612923   26   26   24   24
 -0.3392287114796585   26   26   25   25
 -0.3391171189730848   26   26   26   26
 -0.4607062161673653   27   27    1    1
 -0.4583304955970818   27   27    2    2
 -0.4546127277664511   27   27    3    3
 -0.4541044059752959   27   27    4    4
 -0.4514877470524771   27   27    5    5
 -0.4048499649269066   27   27    6    6
 -0.3992402383503524   27   27    7    7
 -0.39882434764996   27   27    8    8
 -0.3793186222482666   27   27    9    9
 -0.3647402163109053   27   27   10   10
 -0.3637180051382101   27   27   11   11
 -0.3636044327743818   27   27   12   12
 -0.3608705844820599   27   27   13   13
 -0.3478219480298136   27   27   14   14
 -0.3475269181368859   27   27   15   15
 -0.3469286509371458   27   27   16   16
 -0.3467466500497568   27   27   17   17
 -0.344500330313965   27   27   18   18
 -0.3441091734292099   27   27   19   19
 -0.3412889347166271   27   27   20   20
 -0.3406423684727954   27   27   21   21
 -0.3398751773471794   27   27   22   22
 -0.3396444166554301   27   27   23   23
 -0.339572328695571   27   27   24   24
 -0.3386368217490407   27   27   25   25
 -0.3385254239502156   27   27   26   26
 -0.3379347613228831   27   27   27   27
 -0.4581519595995606   28   28    1    1
 -0.4557894105465194   28   28    2    2
 -0.4520922548382473   28   28    3    3
 -0.4515867512948779   28   28    4    4
 -0.4489845997045082   28   28    5    5
 -0.4026053876982928   28   28    6    6
 -0.3970267626794101   28   28    7    7
 -0.3966131777685116   28   28    8    8
 -0.3772155963975881   28   28    9    9
 -0.3627180163484108   28   28   10   10
 -0.3617014725392326   28   28   11   11
 -0.3615885298455629   28   28   12   12
 -0.3588698386093236   28   28   13   13
 -0.3458935466668526   28   28   14   14
 -0.3456001524845257   28   28   15   15
 -0.3450052022096949   28   28   16   16
 -0.3448242103752461   28   28   17   17
 -0.342590344730016   28   28   18   18
 -0.3422013565050421   28   28   19   19
 -0.3393967538160284   28   28   20   20
 -0.3387537722776269   28   28   21   21
 -0.33799083462831   28   28   22   22
 -0.3377613533245781   28   28   23   23
 -0.3376896650362201   28   28   24   24
 -0.3367593447459113   28   28   25   25
 -0.3366485645609782   28   28   26   26
 -0.3360611766971334   28   28   27   27
 -0.3341979796365342   28   28   28   28
 -0.457885036816627   29   29    1    1
 -0.4555238642024612   29   29    2    2
 -0.4518288624849555   29   29    3    3
 -0.4513236534517585   29   29    4    4
 -0.4487230178945074   29   29    5    5
 -0.4023708267665827   29   29    6    6
 -0.39679545189666   29   29    7    7
 -0.3963821079434461   29   29    8    8
 -0.3769958277495517   29   29    9    9
 -0.3625066940997217   29   29   10   10
 -0.3614907425366243   29   29   11   11
 -0.3613778656442188   29   29   12   12
 -0.3586607583379737   29   29   13   13
 -0.3456920264809392   29   29   14   14
 -0.3453988032322731   29   29   15   15
 -0.3448041995799541   29   29   16   16
 -0.3446233131927115   29   29   17   17
 -0.3423907490144341   29   29   18   18
 -0.3420019874169303   29   29   19   19
 -0.3391990187105703   29   29   20   20
 -0.3385564117780568   29   29   21   21
 -0.3377939186219616   29   29   22   22
 -0.3375645710157659   29   29   23   23
 -0.3374929244935446   29   29   24   24
 -0.3365631462148452   29   29   25   25
 -0.3364524305712824   29   29   26   26
 -0.3358653849240318   29   29   27   27
 -0.3340032733760756   29   29   28   28
 -0.3338086805529512   29   29   29   29
 -0.4577280446437114   30   30    1    1
 -0.455367681590002   30   30    2    2
 -0.4516739467545778   30   30    3    3
 -0.4511689109392358   30   30    4    4
 -0.4485691670455995   30   30    5    5
 -0.4022328684029483   30   30    6    6
 -0.3966594051268652   30   30    7    7
 -0.396246202894302   30   30    8    8
 -0.3768665695528   30   30    9    9
 -0.3623824037014183   30   30   10   10
 -0.3613668004712661   30   30   11   11
 -0.3612539622802533   30   30   12   12
 -0.3585377865715617   30   30   13   13
 -0.3455735012223412   30   30   14   14
 -0.3452803785092928   30   30   15   15
 -0.3446859787250016   30   30   16   16
 -0.3445051543571409   30   30   17   17
 -0.3422733556441513   30   30   18   18
 -0.3418847273389001   30   30   19   19
 -0.3390827196688536   30   30   20   20
 -0.3384403330629517   30   30   21   21
 -0.3376781013381062   30   30   22   22
 -0.337448832366887   30   30   23   23
 -0.3373772104096597   30   30   24   24
 -0.3364477509182116   30   30   25   25
 -0.3363370732350276   30   30   26   26
 -0.335750228864439   30   30   27   27
 -0.333888755766999   30   30   28   28
 -0.3336942296626962   30   30   29   29
 -0.3335798180135008   30   30   30   30
 -0.4569829833273083   31   31    1    1
 -0.4546264623261551   31   31    2    2
 -0.4509387399231592   31   31    3    3
 -0.4504345261737879   31   31    4    4
 -0.4478390139819894   31   31    5    5
 -0.4015781386918462   31   31    6    6
 -0.3960137475535401   31   31    7    7
 -0.3956012179059386   31   31    8    8
 -0.3762531295293951   31   31    9    9
 -0.3617925401046765   31   31   10   10
 -0.3607785900104605   31   31   11   11
 -0.3606659354904552   31   31   12   12
 -0.3579541810040872   31   31   13   13
 -0.3450109981143327   31   31   14   14
 -0.3447183525282529   31   31   15   15
 -0.3441249202710577   31   31   16   16
 -0.3439443902378858   31   31   17   17
 -0.341716224308394   31   31   18   18
 -0.3413282285881898   31   31   19   19
 -0.3385307818524092   31   31   20   20
 -0.3378894408835745   31   31   21   21
 -0.3371284498722466   31   31   22   22
 -0.3368995540908362   31   31   23   23
 -0.336828048715388   31   31   24   24
 -0.335900102140442   31   31   25   25
 -0.3357896046115249   31   31   26   26
 -0.3352037154697985   31   31   27   27
 -0.333345272362792   31   31   28   28
 -0.3331510628960146   31   31   29   29
 -0.3330368374790044   31   31   30   30
 -0.3324947407745387   31   31   31   31
 -0.456028569757703   32   32    1    1
 -0.4536769703744276   32   32    2    2
 -0.449996949816863   32   32    3    3
 -0.4494937891229926   32   32    4    4
 -0.4469036976845838   32   32    5    5
 -0.4007394386990505   32   32    6    6
 -0.3951866688477568   32   32    7    7
 -0.3947750007724848   32   32    8    8
 -0.3754673210736519   32   32    9    9
 -0.3610369327357899   32   32   10   10
 -0.360025100286572   32   32   11   11
 -0.359912681046668   32   32   12   12
 -0.3572065900868941   32   32   13   13
 -0.3442904391651441   32   32   14   14
 -0.3439984047723224   32   32   15   15
 -0.3434062119043814   32   32   16   16
 -0.3432260589100045   32   32   17   17
 -0.3410025465275288   32   32   18   18
 -0.3406153611402994   32   32   19   19
 -0.3378237569002402   32   32   20   20
 -0.3371837553784873   32   32   21   21
 -0.3364243537045615   32   32   22   22
 -0.3361959359742991   32   32   23   23
 -0.3361245799385487   32   32   24   24
 -0.3351985713893832   32   32   25   25
 -0.3350883046356698   32   32   26   26
 -0.3345036391293249   32   32   27   27
 -0.3326490773994908   32   32   28   28
 -0.3324552735411436   32   32   29   29
 -0.3323412866850687   32   32   30   30
 -0.3318003221550377   32   32   31   31
 -0.3311073538358271   32   32   32   32
 -0.4552961730136391   33   33    1    1
 -0.4529483503756069   33   33    2    2
 -0.4492742400509822   33   33    3    3
 -0.4487718874495831   33   33    4    4
 -0.4461859557824301   33   33    5    5
 -0.4000958381012259   33   33    6    6
 -0.3945519861792667   33   33    7    7
 -0.394140979256339   33   33    8    8
 -0.3748643083203   33   33    9    9
 -0.3604570956563652   33   33   10   10
 -0.3594468882430343   33   33   11   11
 -0.359334649552093   33   33   12   12
 -0.3566329046625866   33   33   13   13
 -0.3437374975001277   33   33   14   14
 -0.3434459321240576   33   33   15   15
 -0.3428546903371609   33   33   16   16
 -0.3426748266743637   33   33   17   17
 -0.340454885325234   33   33   18   18
 -0.3400683217703541   33   33   19   19
 -0.3372812009376771   33   33   20   20
 -0.3366422272792244   33   33   21   21
 -0.3358840452291343   33   33   22   22
 -0.3356559943451904   33   33   23   23
 -0.3355847529095587   33   33   24   24
 -0.3346602315603   33   33   25   25
 -0.3345501418985863   33   33   26   26
 -0.3339664153840977   33   33   27   27
 -0.3321148321408381   33   33   28   28
 -0.331921339537803   33   33   29   29
 -0.3318075357483335   33   33   30   30
 -0.3312674400249667   33   33   31   31
 -0.3305755846354592   33   33   32   32
 -0.3300446694737563   33   33   33   33
 -0.4551010676151595   34   34    1    1
 -0.4527542510757912   34   34    2    2
 -0.4490817151961134   34   34    3    3
 -0.448579577864928   34   34    4    4
 -0.4459947543319046   34   34    5    5
 -0.3999243873784884   34   34    6    6
 -0.3943829111308759   34   34    7    7
 -0.3939720803343341   34   34    8    8
 -0.3747036699170239   34   34    9    9
 -0.3603026310914265   34   34   10   10
 -0.3592928565763531   34   34   11   11
 -0.3591806659823996   34   34   12   12
 -0.3564800788557836   34   34   13   13
 -0.3435901976865179   34   34   14   14
 -0.3432987572532483   34   34   15   15
 -0.3427077688277265   34   34   16   16
 -0.3425279822408498   34   34   17   17
 -0.3403089921901654   34   34   18   18
 -0.3399225942870983   34   34   19   19
 -0.3371366678029638   34   34   20   20
 -0.3364979679601451   34   34   21   21
 -0.3357401108093618   34   34   22   22
 -0.3355121576507255   34   34   23   23
 -0.3354409467437684   34   34   24   24
 -0.3345168215742206   34   34   25   25
 -0.334406779088584   34   34   26   26
 -0.3338233027149948   34   34   27   27
 -0.331972512919842   34   34   28   28
 -0.3317791032330571   34   34   29   29
 -0.331665348211258   34   34   30   30
 -0.3311254839319436   34   34   31   31
 -0.330433925019168   34   34   32   32
 -0.3299032373674253   34   34   33   33
 -0.3297618658681653   34   34   34   34
 -0.4516424301640046   35   35    1    1
 -0.449313448756548   35   35    2    2
 -0.4456688230951448   35   35    3    3
 -0.4451705018635092   35   35    4    4
 -0.4426053222472158   35   35    5    5
 -0.3968850768555189   35   35    6    6
 -0.3913857142363913   35   35    7    7
 -0.3909780056359509   35   35    8    8
 -0.3718560296057161   35   35    9    9
 -0.3575644345405535   35   35   10   10
 -0.3565623340218813   35   35   11   11
 -0.3564509960442311   35   35   12   12
 -0.3537709326044198   35   35   13   13
 -0.3409790108312649   35   35   14   14
 -0.3406897852616136   35   35   15   15
 -0.3401032881784488   35   35   16   16
 -0.3399248679180144   35   35   17   17
 -0.3377227415546274   35   35   18   18
 -0.3373392801646861   35   35   19   19
 -0.334574525921972   35   35   20   20
 -0.3339406800145834   35   35   21   21
 -0.33318858236056   35   35   22   22
 -0.3329623615804824   35   35   23   23
 -0.3328916918559729   35   35   24   24
 -0.331974589772391   35   35   25   25
 -0.3318653835780512   35   35   26   26
 -0.331286341457381   35   35   27   27
 -0.3294496171332966   35   35   28   28
 -0.329257677304602   35   35   29   29
 -0.3291447867883088   35   35   30   30
 -0.3286090253225183   35   35   31   31
 -0.3279227220589284   35   35   32   32
 -0.3273960674809748   35   35   33   33
 -0.3272557703645204   35   35   34   34
 -0.3247687204671855   35   35   35   35
 -0.4469573976883455   36   36    1    1
 -0.4446525755555726   36   36    2    2
 -0.4410457567706825   36   36    3    3
 -0.4405526047857732   36   36    4    4
 -0.4380140346043016   36   36    5    5
 -0.3927680600519885   36   36    6    6
 -0.3873257440935493   36   36    7    7
 -0.3869222647858105   36   36    8    8
 -0.3679986471752394   36   36    9    9
 -0.3538553034313376   36   36   10   10
 -0.3528635980242853   36   36   11   11
 -0.3527534149913575   36   36   12   12
 -0.3501011527132922   36   36   13   13
 -0.3374419256670511   36   36   14   14
 -0.3371557003274404   36   36   15   15
 -0.3365752871675255   36   36   16   16
 -0.3363987177179508   36   36   17   17
 -0.3342194347209947   36   36   18   18
 -0.3338399510996266   36   36   19   19
 -0.3311038765436497   36   36   20   20
 -0.3304766057241235   36   36   21   21
 -0.3297323098214383   36   36   22   22
 -0.3295084357024151   36   36   23   23
 -0.3294384990577321   36   36   24   24
 -0.3285309103696111   36   36   25   25
 -0.3284228370063183   36   36   26   26
 -0.3278498014761696   36   36   27   27
 -0.3260321300854069   36   36   28   28
 -0.3258421813104104   36   36   29   29
 -0.3257304618438231   36   36   30   30
 -0.3252002580043732   36   36   31   31
 -0.3245210739857066   36   36   32   32
 -0.3239998825654113   36   36   33   33
 -0.3238610407961585   36   36   34   34
 -0.3213997898688923   36   36   35   35
 -0.3180658062733764   36   36   36   36
 -0.4466050454377153   37   37    1    1
 -0.4443020402773652   37   37    2    2
 -0.4406980648746924   37   37    3    3
 -0.440205301658853   37   37    4    4
 -0.4376687327216194   37   37    5    5
 -0.3924584271638189   37   37    6    6
 -0.387020401574633   37   37    7    7
 -0.386617240343836   37   37    8    8
 -0.3677085408871866   37   37    9    9
 -0.3535763468390397   37   37   10   10
 -0.3525854232282703   37   37   11   11
 -0.352475327056506   37   37   12   12
 -0.3498251556501609   37   37   13   13
 -0.3371759083182372   37   37   14   14
 -0.3368899086201376   37   37   15   15
 -0.3363099530203487   37   37   16   16
 -0.3361335227666867   37   37   17   17
 -0.3339559577752335   37   37   18   18
 -0.3335767733141629   37   37   19   19
 -0.3308428557020752   37   37   20   20
 -0.3302160793822175   37   37   21   21
 -0.3294723702341935   37   37   22   22
 -0.3292486726030192   37   37   23   23
 -0.3291787910918553   37   37   24   24
 -0.3282719178878465   37   37   25   25
 -0.3281639297225905   37   37   26   26
 -0.3275913459365225   37   37   27   27
 -0.3257751074801037   37   37   28   28
 -0.3255853084484133   37   37   29   29
 -0.3254736770542143   37   37   30   30
 -0.3249438911931156   37   37   31   31
 -0.3242652425991198   37   37   32   32
 -0.3237444620523684   37   37   33   33
 -0.3236057297369698   37   37   34   34
 -0.321146419100452   37   37   35   35
 -0.317815063801569   37   37   36   36
 -0.317564518998879   37   37   37   37
 -0.4454981150347708   38   38    1    1
 -0.443200817974802   38   38    2    2
 -0.4396057751849275   38   38    3    3
 -0.4391142333045625   38   38    4    4
 -0.4365839513658851   38   38    5    5
 -0.3914857015545647   38   38    6    6
 -0.3860611543528672   38   38    7    7
 -0.3856589923750527   38   38    8    8
 -0.3667971589682218   38   38    9    9
 -0.3526999921894979   38   38   10   10
 -0.3517115246268251   38   38   11   11
 -0.351601701333303   38   38   12   12
 -0.3489580984942696   38   38   13   13
 -0.3363402028825943   38   38   14   14
 -0.3360549120474247   38   38   15   15
 -0.3354763938932991   38   38   16   16
 -0.3353004009298419   38   38   17   17
 -0.3331282331297505   38   38   18   18
 -0.3327499884941758   38   38   19   19
 -0.3300228470180832   38   38   20   20
 -0.329397624191119   38   38   21   21
 -0.3286557583591868   38   38   22   22
 -0.3284326151725077   38   38   23   23
 -0.328362906865767   38   38   24   24
 -0.3274582813871957   38   38   25   25
 -0.3273505608753943   38   38   26   26