 &FCI NORB=  32,NELEC=50,MS2=0,
  ORBSYM=1,1,1,1,1,1,1,1,1,1,1,1,1,1,1,1,1,1,1,1,1,1,1,1,1,1,1,1,1,1,1,1,
  ISYM=1,
 &END
 -0.396323762531459    1    1    1    1
 -0.4000561757637663    2    2    1    1
 -0.4038237393197576    2    2    2    2
 -0.4120770490066629    3    3    1    1
 -0.4159578201736971    3    3    2    2
 -0.4284565054424685    3    3    3    3
 -0.4124322287026042    4    4    1    1
 -0.4163163448050732    4    4    2    2
 -0.4288258030087705    4    4    3    3
 -0.4291954188820437    4    4    4    4
 -0.4159170475515133    5    5    1    1
 -0.4198339822361961    5    5    2    2
 -0.4324491382799361    5    5    3    3
 -0.4328218771980937    5    5    4    4
 -0.4364789770339259    5    5    5    5
 -0.4194327445195714    6    6    1    1
 -0.4233827885838193    6    6    2    2
 -0.4361045790300578    6    6    3    3
 -0.4364804686656293    6    6    4    4
 -0.4401684815281825    6    6    5    5
 -0.4438891729618552    6    6    6    6
 -0.421513433924472    7    7    1    1
 -0.4254830730607327    7    7    2    2
 -0.43826797277762    7    7    3    3
 -0.438645727097321    7    7    4    4
 -0.4423520351678392    7    7    5    5
 -0.446091183918796    7    7    6    6
 -0.4483041184407837    7    7    7    7
 -0.4334461841675952    8    8    1    1
 -0.4375282010089442    8    8    2    2
 -0.4506750322870266    8    8    3    3
 -0.4510634805670797    8    8    4    4
 -0.4548747116245541    8    8    5    5
 -0.4587197130591411    8    8    6    6
 -0.4609952942083297    8    8    7    7
 -0.4740457482776744    8    8    8    8
 -0.4369596370383446    9    9    1    1
 -0.4410747421252787    9    9    2    2
 -0.4543281397402732    9    9    3    3
 -0.4547197367266123    9    9    4    4
 -0.4585618610787771    9    9    5    5
 -0.462438029545909    9    9    6    6
 -0.4647320562309294    9    9    7    7
 -0.4778882954172953    9    9    8    8
 -0.4817619896952964    9    9    9    9
 -0.4384761557005661   10   10    1    1
 -0.4426055427328617   10   10    2    2
 -0.4559049377881625   10   10    3    3
 -0.4562978938568687   10   10    4    4
 -0.4601533527433675   10   10    5    5
 -0.4640429738988487   10   10    6    6
 -0.4663449622672481   10   10    7    7
 -0.4795468616944225   10   10    8    8
 -0.4834340000738151   10   10    9    9
 -0.4851118133566012   10   10   10   10
 -0.4412009329882847   11   11    1    1
 -0.4453559808458076   11   11    2    2
 -0.45873802096428   11   11    3    3
 -0.459133418939478   11   11    4    4
 -0.4630128364076946   11   11    5    5
 -0.466926628435969   11   11    6    6
 -0.4692429218139824   11   11    7    7
 -0.4825268604472714   11   11    8    8
 -0.4864381542709971   11   11    9    9
 -0.488126393816344   11   11   10   10
 -0.4911597074734612   11   11   11   11
 -0.4414161544218045   12   12    1    1
 -0.4455732291457491   12   12    2    2
 -0.4589617971331409   12   12    3    3
 -0.4593573879867139   12   12    4    4
 -0.4632386978665877   12   12    5    5
 -0.4671543990747116   12   12    6    6
 -0.4694718223596313   12   12    7    7
 -0.4827622410071308   12   12    8    8
 -0.4866754427920613   12   12    9    9
 -0.4883645058745041   12   12   10   10
 -0.4913992992069003   12   12   11   11
 -0.4916390078151519   12   12   12   12
 -0.4466689348459823   13   13    1    1
 -0.4508754780828324   13   13    2    2
 -0.4644233678511049   13   13    3    3
 -0.4648236661714773   13   13    4    4
 -0.4687511630074761   13   13    5    5
 -0.472713460422936   13   13    6    6
 -0.4750584606679276   13   13    7    7
 -0.4885070331351309   13   13    8    8
 -0.4924668013846681   13   13    9    9
 -0.4941759640430004   13   13   10   10
 -0.4972468709223253   13   13   11   11
 -0.4974894320240173   13   13   12   12
 -0.5034094753291699   13   13   13   13
 -0.4510868161402902   14   14    1    1
 -0.4553349651554472   14   14    2    2
 -0.4690168534271196   14   14    3    3
 -0.4694211109896146   14   14    4    4
 -0.4733874536316492   14   14    5    5
 -0.4773889410562381   14   14    6    6
 -0.4797571350626698   14   14    7    7
 -0.4933387237127837   14   14    8    8
 -0.4973376569561557   14   14    9    9
 -0.4990637244788027   14   14   10   10
 -0.5021650048652161   14   14   11   11
 -0.5024099650729803   14   14   12   12
 -0.5083885619209003   14   14   13   13
 -0.5134168953077406   14   14   14   14
 -0.4561081752304427   15   15    1    1
 -0.4604036133281229   15   15    2    2
 -0.4742378041535061   15   15    3    3
 -0.4746465617863058   15   15    4    4
 -0.478657056529372   15   15    5    5
 -0.4827030872758551   15   15    6    6
 -0.4850976432863977   15   15    7    7
 -0.4988304179858191   15   15    8    8
 -0.5028738661187291   15   15    9    9
 -0.5046191476918315   15   15   10   10
 -0.5077549505734769   15   15   11   11
 -0.5080026376026022   15   15   12   12
 -0.5140477863437598   15   15   13   13
 -0.5191320935845388   15   15   14   14
 -0.5249109116830485   15   15   15   15
 -0.4611468871762566   16   16    1    1
 -0.4654897777784756   16   16    2    2
 -0.4794767974860363   16   16    3    3
 -0.4798900707405223   16   16    4    4
 -0.4839448701658282   16   16    5    5
 -0.4880355981673981   16   16    6    6
 -0.4904566072840905   16   16    7    7
 -0.5043410905028609   16   16    8    8
 -0.5084292073602447   16   16    9    9
 -0.5101937693838822   16   16   10   10
 -0.5133642140638935   16   16   11   11
 -0.5136146373377527   16   16   12   12
 -0.5197265679627493   16   16   13   13
 -0.5248670424923899   16   16   14   14
 -0.5307097002705347   16   16   15   15
 -0.5365725491553665   16   16   16   16
 -0.4775306918153281   17   17    1    1
 -0.4820278783114895   17   17    2    2
 -0.4965118342550828   17   17    3    3
 -0.4969397904413034   17   17    4    4
 -0.5011386503459971   17   17    5    5
 -0.5053747153112832   17   17    6    6
 -0.507881738974534   17   17    7    7
 -0.5222595154733778   17   17    8    8
 -0.5264928765247388   17   17    9    9
 -0.5283201305891831   17   17   10   10
 -0.5316032160517756   17   17   11   11
 -0.5318625364603873   17   17   12   12
 -0.5381916141162155   17   17   13   13
 -0.5435147214094891   17   17   14   14
 -0.5495649593888062   17   17   15   15
 -0.5556361058322439   17   17   16   16
 -0.5753769599104597   17   17   17   17
 -0.4781912705117073   18   18    1    1
 -0.482694678064743   18   18    2    2
 -0.4971986699827766   18   18    3    3
 -0.4976272181701909   18   18    4    4
 -0.5018318864500313   18   18    5    5
 -0.5060738112570417   18   18    6    6
 -0.5085843029412002   18   18    7    7
 -0.5229819685341257   18   18    8    8
 -0.5272211856868274   18   18    9    9
 -0.5290509674319602   18   18   10   10
 -0.5323385944587958   18   18   11   11
 -0.5325982735910255   18   18   12   12
 -0.5389361063990122   18   18   13   13
 -0.5442665772635426   18   18   14   14
 -0.550325184669968   18   18   15   15
 -0.5564047294636518   18   18   16   16
 -0.576172891498981   18   18   17   17
 -0.5769699241171538   18   18   18   18
 -0.478587768641388   19   19    1    1
 -0.4830949102497738   19   19    2    2
 -0.4976109283297702   19   19    3    3
 -0.4980398318531458   19   19    4    4
 -0.5022479864850209   19   19    5    5
 -0.5064934285357702   19   19    6    6
 -0.5090060018247565   19   19    7    7
 -0.5234156054178745   19   19    8    8
 -0.5276583375692305   19   19    9    9
 -0.5294896365002352   19   19   10   10
 -0.5327799895031553   19   19   11   11
 -0.5330398839515077   19   19   12   12
 -0.539382971850939   19   19   13   13
 -0.5447178625404608   19   19   14   14
 -0.5507814935151806   19   19   15   15
 -0.5568660792376487   19   19   16   16
 -0.5766506322858583   19   19   17   17
 -0.5774483257733566   19   19   18   18
 -0.5779271241021329   19   19   19   19
 -0.4827284757338718   20   20    1    1
 -0.4872746128086014   20   20    2    2
 -0.5019162224372266   20   20    3    3
 -0.5023488368031636   20   20    4    4
 -0.5065934000874786   20   20    5    5
 -0.5108755733987449   20   20    6    6
 -0.5134098852918492   20   20    7    7
 -0.527944159743078   20   20    8    8
 -0.5322235997090957   20   20    9    9
 -0.5340707429072733   20   20   10   10
 -0.5373895638086829   20   20   11   11
 -0.5376517068451858   20   20   12   12
 -0.5440496746867602   20   20   13   13
 -0.5494307224683833   20   20   14   14
 -0.5555468155439515   20   20   15   15
 -0.5616840446662444   20   20   16   16
 -0.5816397722502363   20   20   17   17
 -0.5824443673246487   20   20   18   18
 -0.5829273081822688   20   20   19   19
 -0.587970753496897   20   20   20   20
 -0.4903845640660213   21   21    1    1
 -0.4950028030132606   21   21    2    2
 -0.5098766290166733   21   21    3    3
 -0.5103161046596343   21   21    4    4
 -0.5146279868469552   21   21    5    5
 -0.5189780755574007   21   21    6    6
 -0.521552581714341   21   21    7    7
 -0.5363173702011736   21   21    8    8
 -0.5406646822154316   21   21    9    9
 -0.5425411211610083   21   21   10   10
 -0.5459125786630267   21   21   11   11
 -0.5461788792960752   21   21   12   12
 -0.5526783191025402   21   21   13   13
 -0.5581447104659211   21   21   14   14
 -0.5643578049640031   21   21   15   15
 -0.5705923707271551   21   21   16   16
 -0.5908645967586088   21   21   17   17
 -0.5916819527354146   21   21   18   18
 -0.5921725530497499   21   21   19   19
 -0.5972959875607239   21   21   20   20
 -0.6067691201209096   21   21   21   21
 -0.4993869448266817   22   22    1    1
 -0.5040899644715475   22   22    2    2
 -0.5192368411679517   22   22    3    3
 -0.5196843846159842   22   22    4    4
 -0.5240754234654225   22   22    5    5
 -0.5285053702256185   22   22    6    6
 -0.5311271386464915   22   22    7    7
 -0.5461629761376138   22   22    8    8
 -0.5505900952275946   22   22    9    9
 -0.5525009814602599   22   22   10   10
 -0.5559343314980056   22   22   11   11
 -0.5562055208242781   22   22   12   12
 -0.5628242760337069   22   22   13   13
 -0.5683910183054278   22   22   14   14
 -0.5747181715371493   22   22   15   15
 -0.5810671901990874   22   22   16   16
 -0.6017115696606739   22   22   17   17
 -0.6025439304933812   22   22   18   18
 -0.6030435371491771   22   22   19   19
 -0.608261026635878   22   22   20   20
 -0.6179080650498612   22   22   21   21
 -0.629251496479552   22   22   22   22
 -0.4998915526429996   23   23    1    1
 -0.504599324475518   23   23    2    2
 -0.5197615064025715   23   23    3    3
 -0.5202095020729225   23   23    4    4
 -0.5246049778675956   23   23    5    5
 -0.5290394008877024   23   23    6    6
 -0.5316638184864353   23   23    7    7
 -0.5467148490081353   23   23    8    8
 -0.5511464415007947   23   23    9    9
 -0.5530592585971701   23   23   10   10
 -0.5564960778791225   23   23   11   11
 -0.5567675412298867   23   23   12   12
 -0.5633929843907078   23   23   13   13
 -0.5689653516025495   23   23   14   14
 -0.5752988981351149   23   23   15   15
 -0.5816543321919203   23   23   16   16
 -0.6023195718609017   23   23   17   17
 -0.6031527737564092   23   23   18   18
 -0.6036528852420293   23   23   19   19
 -0.6088756467647812   23   23   20   20
 -0.6185324330727342   23   23   21   21
 -0.6298873265244554   23   23   22   22
 -0.630523799046728   23   23   23   23
 -0.5126370661429155   24   24    1    1
 -0.5174648699486263   24   24    2    2
 -0.5330136353124625   24   24    3    3
 -0.533473053329989   24   24    4    4
 -0.5379805986241032   24   24    5    5
 -0.542528084163807   24   24    6    6
 -0.5452194153756171   24   24    7    7
 -0.5606541953559501   24   24    8    8
 -0.5651987781995019   24   24    9    9
 -0.5671603655461362   24   24   10   10
 -0.5706848118870443   24   24   11   11
 -0.5709631966186233   24   24   12   12
 -0.577757565769097   24   24   13   13
 -0.5834720091595608   24   24   14   14
 -0.5899670393227384   24   24   15   15
 -0.596484515066667   24   24   16   16
 -0.6176766471981983   24   24   17   17
 -0.6185310928733839   24   24   18   18
 -0.6190439554800378   24   24   19   19
 -0.6243998794400085   24   24   20   20
 -0.6343028805511584   24   24   21   21
 -0.6459472846917758   24   24   22   22
 -0.6465999850720348   24   24   23   23
 -0.6630860584917762   24   24   24   24
 -0.5557768194798937   25   25    1    1
 -0.5610108956351727   25   25    2    2
 -0.5778681303758672   25   25    3    3
 -0.5783662096242402   25   25    4    4
 -0.5832530766744   25   25    5    5
 -0.5881832450465457   25   25    6    6
 -0.591101058836955   25   25    7    7
 -0.6078347160252355   25   25    8    8
 -0.6127617374317368   25   25    9    9
 -0.6148883974972039   25   25   10   10
 -0.6187094352393937   25   25   11   11
 -0.6190112467761067   25   25   12   12
 -0.6263773799065773   25   25   13   13
 -0.6325727086925854   25   25   14   14
 -0.6396143126750614   25   25   15   15
 -0.6466802510927647   25   25   16   16
 -0.6696557567125175   25   25   17   17
 -0.6705821062317712   25   25   18   18
 -0.6711381275715873   25   25   19   19
 -0.6769447665769277   25   25   20   20
 -0.6876811311989238   25   25   21   21
 -0.7003054424815705   25   25   22   22
 -0.701013069310319   25   25   23   23
 -0.7188864890376033   25   25   24   24
 -0.7793826721320241   25   25   25   25
 -0.5558298050949931   26   26    1    1
 -0.5610643802468746   26   26    2    2
 -0.5779232220912125   26   26    3    3
 -0.5784213488245371   26   26    4    4
 -0.5833086817697244   26   26    5    5
 -0.5882393201650784   26   26    6    6
 -0.5911574121285834   26   26    7    7
 -0.607892664639101   26   26    8    8
 -0.6128201557687909   26   26    9    9
 -0.6149470185818139   26   26   10   10
 -0.6187684206069819   26   26   11   11
 -0.619070260917241   26   26   12   12
 -0.6264370963063902   26   26   13   13
 -0.6326330157311132   26   26   14   14
 -0.6396752910329124   26   26   15   15
 -0.64674190308989   26   26   16   16
 -0.6697195991055982   26   26   17   17
 -0.6706460369394367   26   26   18   18
 -0.6712021112881794   26   26   19   19
 -0.6770093038760526   26   26   20   20
 -0.6877466920615791   26   26   21   21
 -0.7003722068972978   26   26   22   22
 -0.7010799011884549   26   26   23   23
 -0.718955024898534   26   26   24   24
 -0.7794569754653646   26   26   25   25
 -0.7795312858824981   26   26   26   26
 -0.5590210835432942   27   27    1    1
 -0.5642857128353369   27   27    2    2
 -0.5812413491627126   27   27    3    3
 -0.5817423358742069   27   27    4    4
 -0.5866577292799068   27   27    5    5
 -0.5916166767725839   27   27    6    6
 -0.5945515228646151   27   27    7    7
 -0.6113828602740967   27   27    8    8
 -0.6163386424311879   27   27    9    9
 -0.6184777165567303   27   27   10   10
 -0.622321059035277   27   27   11   11
 -0.6226246323516977   27   27   12   12
 -0.6300337641826605   27   27   13   13
 -0.6362652572739023   27   27   14   14
 -0.6433479655665049   27   27   15   15
 -0.650455150342961   27   27   16   16
 -0.6735647720406214   27   27   17   17
 -0.6744965289866515   27   27   18   18
 -0.6750557960178819   27   27   19   19
 -0.6808963304099925   27   27   20   20
 -0.6916953669547712   27   27   21   21
 -0.7043933707664761   27   27   22   22
 -0.7051051282610069   27   27   23   23
 -0.7230828814028541   27   27   24   24
 -0.7839322019184609   27   27   25   25
 -0.7840069389863974   27   27   26   26
 -0.7885082889046122   27   27   27   27
 -0.6242651472938406   28   28    1    1
 -0.6301442181861463   28   28    2    2
 -0.6490787684579882   28   28    3    3
 -0.6496382259676421   28   28    4    4
 -0.6551273012078227   28   28    5    5
 -0.6606650137880294   28   28    6    6
 -0.6639423895111666   28   28    7    7
 -0.6827381337798505   28   28    8    8
 -0.6882723115941174   28   28    9    9
 -0.690661039789466   28   28   10   10
 -0.6949529436712716   28   28   11   11
 -0.6952919474166913   28   28   12   12
 -0.7035658084747733   28   28   13   13
 -0.7105245870736187   28   28   14   14
 -0.7184339272857906   28   28   15   15
 -0.7263706006634689   28   28   16   16
 -0.7521773757882172   28   28   17   17
 -0.7532178792759725   28   28   18   18
 -0.7538424190758218   28   28   19   19
 -0.7603646096870518   28   28   20   20
 -0.7724240155622787   28   28   21   21
 -0.7866040195964876   28   28   22   22
 -0.7873988472161267   28   28   23   23
 -0.8074748068596747   28   28   24   24
 -0.8754259291923684   28   28   25   25
 -0.8755093889188387   28   28   26   26
 -0.8805360971279538   28   28   27   27
 -0.9833045882401934   28   28   28   28
 -0.6251789690153581   29   29    1    1
 -0.6310666459025797   29   29    2    2
 -0.6500289132484894   29   29    3    3
 -0.6505891897121195   29   29    4    4
 -0.6560863000575872   29   29    5    5
 -0.6616321189401644   29   29    6    6
 -0.6649142922034788   29   29    7    7
 -0.6837375503570227   29   29    8    8
 -0.6892798292993428   29   29    9    9
 -0.6916720542007324   29   29   10   10
 -0.6959702407254357   29   29   11   11
 -0.6963097407167017   29   29   12   12
 -0.70459571334947   29   29   13   13
 -0.7115646784581126   29   29   14   14
 -0.7194855966462775   29   29   15   15
 -0.7274338880112176   29   29   16   16
 -0.7532784400193518   29   29   17   17
 -0.7543204666334463   29   29   18   18
 -0.7549459206570635   29   29   19   19
 -0.7614776586849291   29   29   20   20
 -0.7735547175511731   29   29   21   21
 -0.787755478784072   29   29   22   22
 -0.7885514699008996   29   29   23   23
 -0.808656817454508   29   29   24   24
 -0.8767074090781886   29   29   25   25
 -0.8767909909760011   29   29   26   26
 -0.8818250574609531   29   29   27   27
 -0.9847439847778617   29   29   28   28
 -0.986185488355828   29   29   29   29
 -0.6315553562244196   30   30    1    1
 -0.6375030832883991   30   30    2    2
 -0.6566587524679466   30   30    3    3
 -0.65722474335873   30   30    4    4
 -0.6627779203760322   30   30    5    5
 -0.6683803027233758   30   30    6    6
 -0.6716959518530442   30   30    7    7
 -0.6907111940439147   30   30    8    8
 -0.6963100003460921   30   30    9    9
 -0.6987266242644329   30   30   10   10
 -0.7030686492784913   30   30   11   11
 -0.7034116119316653   30   30   12   12
 -0.7117820956764973   30   30   13   13
 -0.7188221393437311   30   30   14   14
 -0.7268238453445421   30   30   15   15
 -0.7348532037093415   30   30   16   16
 -0.7609613520299175   30   30   17   17
 -0.7620140065849744   30   30   18   18
 -0.7626458398011647   30   30   19   19
 -0.7692441969779109   30   30   20   20
 -0.7814444333781002   30   30   21   21
 -0.795790032420286   30   30   22   22
 -0.7965941420884843   30   30   23   23
 -0.8169045500925051   30   30   24   24
 -0.8856492100446223   30   30   25   25
 -0.8857336444191982   30   30   26   26
 -0.8908190548532194   30   30   27   27
 -0.9947876830785695   30   30   28   28
 -0.9962438889824806   30   30   29   29
 -1.006404878244193   30   30   30   30
 -0.6336188870337313   31   31    1    1
 -0.6395860475771689   31   31    2    2
 -0.6588043055909895   31   31    3    3
 -0.6593721457886143   31   31    4    4
 -0.6649434671407745   31   31    5    5
 -0.6705641545954462   31   31    6    6
 -0.6738906372079828   31   31    7    7
 -0.6929680094049099   31   31    8    8
 -0.6985851091301201   31   31    9    9
 -0.7010096290750889   31   31   10   10
 -0.7053658411311905   31   31   11   11
 -0.7057099243733903   31   31   12   12
 -0.7141077576623692   31   31   13   13
 -0.7211708038215667   31   31   14   14
 -0.7291986544298092   31   31   15   15
 -0.7372542477527978   31   31   16   16
 -0.7634477012931026   31   31   17   17
 -0.7645037952697155   31   31   18   18
 -0.7651376929245888   31   31   19   19
 -0.7717576094360646   31   31   20   20
 -0.7839977086344149   31   31   21   21
 -0.7983901801879488   31   31   22   22
 -0.7991969171873193   31   31   23   23
 -0.8195736869951834   31   31   24   24
 -0.8885429618165891   31   31   25   25
 -0.888627672070281   31   31   26   26
 -0.8937296984683745   31   31   27   27
 -0.9980380316228813   31   31   28   28
 -0.9994989955036155   31   31   29   29
 -1.009693184569887   31   31   30   30
 -1.01299223503914   31   31   31   31
 -0.6362017880564543   32   32    1    1
 -0.6421932732931513   32   32    2    2
 -0.6614898731293112   32   32    3    3
 -0.6620600280859452   32   32    4    4
 -0.6676540605218703   32   32    5    5
 -0.673297660297611   32   32    6    6
 -0.6766377030730747   32   32    7    7
 -0.6957928427816192   32   32    8    8
 -0.7014328402027817   32   32    9    9
 -0.7038672435258722   32   32   10   10
 -0.7082412133616188   32   32   11   11
 -0.7085866992339742   32   32   12   12
 -0.7170187656757752   32   32   13   13
 -0.7241106038257441   32   32   14   14
 -0.7321711793794873   32   32   15   15
 -0.7402596107391228   32   32   16   16
 -0.7665598399758634   32   32   17   17
 -0.7676202390422835   32   32   18   18
 -0.7682567207345563   32   32   19   19
 -0.7749036228512244   32   32   20   20
 -0.7871936179181868   32   32   21   21
 -0.8016447593287213   32   32   22   22
 -0.8024547849324301   32   32   23   23
 -0.8229146191511783   32   32   24   24
 -0.8921650421740002   32   32   25   25
 -0.8922500977428417   32   32   26   26
 -0.8973729221781642   32   32   27   27
 -1.002106460619156   32   32   28   28
 -1.003573380012232   32   32   29   29
 -1.013809124944188   32   32   30   30
 -1.017121623751245   32   32   31   31
 -1.021267845614232   32   32   32   32
 -0.1981618812657295    1    1  0  0
 -0.2019118696598788    2    2  0  0
 -0.2142282527212342    3    3  0  0
 -0.2145977094410218    4    4  0  0
 -0.2182394885169629    5    5  0  0
 -0.2219445864809276    6    6  0  0
 -0.2241520592203918    7    7  0  0
 -0.2370228741388372    8    8  0  0
 -0.2408809948476482    9    9  0  0
 -0.2425559066783006   10   10  0  0
 -0.2455798537367306   11   11  0  0
 -0.2458195039075759   12   12  0  0
 -0.251704737664585   13   13  0  0
 -0.2567084476538703   14   14  0  0
 -0.2624554558415242   15   15  0  0
 -0.2682862745776832   16   16  0  0
 -0.2876884799552298   17   17  0  0
 -0.2884849620585769   18   18  0  0
 -0.2889635620510664   19   19  0  0
 -0.2939853767484485   20   20  0  0
 -0.3033845600604548   21   21  0  0
 -0.314625748239776   22   22  0  0
 -0.315261899523364   23   23  0  0
 -0.3315430292458881   24   24  0  0
 -0.389691336066012   25   25  0  0
 -0.389765642941249   26   26  0  0
 -0.3942541444523061   27   27  0  0
 -0.4916522941200967   28   28  0  0
 -0.493092744177914   29   29  0  0
 -0.5032024391220965   30   30  0  0
 -0.5064961175195702   31   31  0  0
 -0.5106339228071158   32   32  0  0
 -5007.797869378561  0  0  0  0
