 &FCI NORB=  46,NELEC=57,MS2=1,
  ORBSYM=1,1,1,1,1,1,1,1,1,1,1,1,1,1,1,1,1,1,1,1,1,1,1,1,1,1,1,1,1,1,1,1,1,1,1,1,1,1,1,1,1,1,1,1,1,1,
  ISYM=1,
 &END
 -0.593285093897389    1    1    1    1
 -0.5929095005863353    2    2    1    1
 -0.5925341450536055    2    2    2    2
 -0.5875975495094431    3    3    1    1
 -0.5872255568343238    3    3    2    2
 -0.5819645289271643    3    3    3    3
 -0.5875089706656506    4    4    1    1
 -0.5871370340674857    4    4    2    2
 -0.5818767992469713    4    4    3    3
 -0.5817890827918056    4    4    4    4
 -0.5875041376797391    5    5    1    1
 -0.5871322041412114    5    5    2    2
 -0.5818720125926163    5    5    3    3
 -0.5817842968590267    5    5    4    4
 -0.581779510965618    5    5    5    5
 -0.5874362835439019    6    6    1    1
 -0.5870643929620569    6    6    2    2
 -0.5818048089423778    6    6    3    3
 -0.5817171033395685    6    6    4    4
 -0.5817123179989093    6    6    5    5
 -0.5816451327926918    6    6    6    6
 -0.579499293359258    7    7    1    1
 -0.5791324274787817    7    7    2    2
 -0.5739439069393624    7    7    3    3
 -0.5738573863476395    7    7    4    4
 -0.5738526656628467    7    7    5    5
 -0.5737863882117973    7    7    6    6
 -0.566033824982565    7    7    7    7
 -0.5794115135994482    8    8    1    1
 -0.5790447032900472    8    8    2    2
 -0.5738569686827109    8    8    3    3
 -0.5737704611967102    8    8    4    4
 -0.573765741226984    8    8    5    5
 -0.5736994738153234    8    8    6    6
 -0.5659480849070022    8    8    7    7
 -0.5658623578189329    8    8    8    8
 -0.5793555164179428    9    9    1    1
 -0.578988741558896    9    9    2    2
 -0.5738015083197749    9    9    3    3
 -0.5737150091942836    9    9    4    4
 -0.5737102896807185    9    9    5    5
 -0.5736440286734669    9    9    6    6
 -0.5658933888975352    9    9    7    7
 -0.5658076700945537    9    9    8    8
 -0.5657529876554653    9    9    9    9
 -0.5792927197217113   10   10    1    1
 -0.5789259846176144   10   10    2    2
 -0.5737393136258537   10   10    3    3
 -0.5736528238760552   10   10    4    4
 -0.5736481048740411   10   10    5    5
 -0.5735818510488602   10   10    6    6
 -0.5658320513694803   10   10    7    7
 -0.5657463418576119   10   10    8    8
 -0.5656916653455863   10   10    9    9
 -0.5656303496824698   10   10   10   10
 -0.5574216368698376   11   11    1    1
 -0.5570687477775639   11   11    2    2
 -0.5520778985303623   11   11    3    3
 -0.5519946741840797   11   11    4    4
 -0.5519901333470596   11   11    5    5
 -0.5519263809220353   11   11    6    6
 -0.544469173407381   11   11    7    7
 -0.5443866998412986   11   11    8    8
 -0.5443340876302454   11   11    9    9
 -0.5442750869279466   11   11   10   10
 -0.5237260879242469   11   11   11   11
 -0.5562069152406595   12   12    1    1
 -0.5558547951569507   12   12    2    2
 -0.5508748218645517   12   12    3    3
 -0.5507917788790322   12   12    4    4
 -0.5507872479373097   12   12    5    5
 -0.5507236344402431   12   12    6    6
 -0.5432826775169942   12   12    7    7
 -0.5432003836755904   12   12    8    8
 -0.5431478861159725   12   12    9    9
 -0.5430890139867761   12   12   10   10
 -0.5225847949340091   12   12   11   11
 -0.5214459890257013   12   12   12   12
 -0.5526708361355527   13   13    1    1
 -0.5523209546512508   13   13    2    2
 -0.5473726414821272   13   13    3    3
 -0.5472901264414389   13   13    4    4
 -0.5472856243051265   13   13    5    5
 -0.5472224152301404   13   13    6    6
 -0.5398287641054662   13   13    7    7
 -0.5397469934462185   13   13    8    8
 -0.5396948296392357   13   13    9    9
 -0.5396363317889276   13   13   10   10
 -0.5192624680743851   13   13   11   11
 -0.5181309021116206   13   13   12   12
 -0.5148368908246981   13   13   13   13
 -0.5501575387170368   14   14    1    1
 -0.5498092483357454   14   14    2    2
 -0.5448834378606322   14   14    3    3
 -0.5448012980610913   14   14    4    4
 -0.5447968163984622   14   14    5    5
 -0.5447338947698086   14   14    6    6
 -0.5373738666320375   14   14    7    7
 -0.5372924678288266   14   14    8    8
 -0.5372405412392847   14   14    9    9
 -0.5371823094107866   14   14   10   10
 -0.5169010968291264   14   14   11   11
 -0.5157746767174312   14   14   12   12
 -0.512495645106516   14   14   13   13
 -0.5101650463167313   14   14   14   14
 -0.5501289662991727   15   15    1    1
 -0.5497806940063336   15   15    2    2
 -0.5448551393530628   15   15    3    3
 -0.5447730038194505   15   15    4    4
 -0.5447685223895763   15   15    5    5
 -0.5447056040287559   15   15    6    6
 -0.5373459581338601   15   15    7    7
 -0.5372645635580939   15   15    8    8
 -0.5372126396653581   15   15    9    9
 -0.5371544108611287   15   15   10   10
 -0.516874251583731   15   15   11   11
 -0.5157478899726359   15   15   12   12
 -0.5124690286581445   15   15   13   13
 -0.510138550907949   15   15   14   14
 -0.510112056875205   15   15   15   15
 -0.5498809085986699   16   16    1    1
 -0.5495327933446879   16   16    2    2
 -0.5446094596647449   16   16    3    3
 -0.5445273611667238   16   16    4    4
 -0.5445228817575635   16   16    5    5
 -0.5444599917671523   16   16    6    6
 -0.5371036643974552   16   16    7    7
 -0.5370223065231764   16   16    8    8
 -0.5369704060433533   16   16    9    9
 -0.5369122034949732   16   16   10   10
 -0.5166411887091119   16   16   11   11
 -0.5155153349837821   16   16   12   12
 -0.5122379521349739   16   16   13   13
 -0.5099085252164691   16   16   14   14
 -0.5098820431301037   16   16   15   15
 -0.5096521331001022   16   16   16   16
 -0.5498632464513348   17   17    1    1
 -0.5495151423787973   17   17    2    2
 -0.5445919668360865   17   17    3    3
 -0.544509870975065   17   17    4    4
 -0.5445053917097831   17   17    5    5
 -0.5444425037393953   17   17    6    6
 -0.537086412654566   17   17    7    7
 -0.5370050573934981   17   17    8    8
 -0.5369531585807158   17   17    9    9
 -0.5368949579017986   17   17   10   10
 -0.5166245942199204   17   17   11   11
 -0.5154987766569561   17   17   12   12
 -0.5122214990775213   17   17   13   13
 -0.5098921469800929   17   17   14   14
 -0.5098656657443308   17   17   15   15
 -0.5096357630990279   17   17   16   16
 -0.5096193936237573   17   17   17   17
 -0.5476624737497162   18   18    1    1
 -0.5473157629289466   18   18    2    2
 -0.542412291904422   18   18    3    3
 -0.5423305246238813   18   18    4    4
 -0.5423260632864111   18   18    5    5
 -0.5422634270188409   18   18    6    6
 -0.5349367779535585   18   18    7    7
 -0.534855748308794   18   18    8    8
 -0.5348040572158241   18   18    9    9
 -0.5347460894793089   18   18   10   10
 -0.5145568559026539   18   18   11   11
 -0.5134355443119938   18   18   12   12
 -0.5101713837086054   18   18   13   13
 -0.507851354610198   18   18   14   14
 -0.5078249793629361   18   18   15   15
 -0.5075959968799992   18   18   16   16
 -0.5075796929219178   18   18   17   17
 -0.5055481559183306   18   18   18   18
 -0.5473475908025836   19   19    1    1
 -0.5470010793259907   19   19    2    2
 -0.5421004275915973   19   19    3    3
 -0.5420187073238126   19   19    4    4
 -0.5420142485514242   19   19    5    5
 -0.5419516482970803   19   19    6    6
 -0.5346292117476464   19   19    7    7
 -0.5345482286915283   19   19    8    8
 -0.5344965673187683   19   19    9    9
 -0.5344386329112698   19   19   10   10
 -0.5142610072969522   19   19   11   11
 -0.5131403404134161   19   19   12   12
 -0.5098780565654381   19   19   13   13
 -0.5075593613864338   19   19   14   14
 -0.5075330013038324   19   19   15   15
 -0.507304150476217   19   19   16   16
 -0.5072878558922275   19   19   17   17
 -0.5052574869371912   19   19   18   18
 -0.5049669850785221   19   19   19   19
 -0.5472489571280875   20   20    1    1
 -0.5469025080939002   20   20    2    2
 -0.5420027394716206   20   20    3    3
 -0.5419210339300728   20   20    4    4
 -0.5419165759611686   20   20    5    5
 -0.5418539869875779   20   20    6    6
 -0.534532869963132   20   20    7    7
 -0.534451901500403   20   20    8    8
 -0.534400249437177   20   20    9    9
 -0.5343423254696322   20   20   10   10
 -0.5141683359238576   20   20   11   11
 -0.5130478709878488   20   20   12   12
 -0.5097861750131868   20   20   13   13
 -0.5074678976699952   20   20   14   14
 -0.5074415423375597   20   20   15   15
 -0.5072127327495487   20   20   16   16
 -0.507196441101892   20   20   17   17
 -0.5051664380254198   20   20   18   18
 -0.5048759885160554   20   20   19   19
 -0.5047850083514416   20   20   20   20
 -0.5471977331706627   21   21    1    1
 -0.5468513165650261   21   21    2    2
 -0.5419520065741171   21   21    3    3
 -0.5418703086804253   21   21    4    4
 -0.5418658511287989   21   21    5    5
 -0.5418032680137026   21   21    6    6
 -0.5344828362652755   21   21    7    7
 -0.5344018753814099   21   21    8    8
 -0.5343502281529545   21   21    9    9
 -0.5342923096072471   21   21   10   10
 -0.5141202084005329   21   21   11   11
 -0.5129998483430213   21   21   12   12
 -0.5097384576717747   21   21   13   13
 -0.5074203973255065   21   21   14   14
 -0.5073940444600001   21   21   15   15
 -0.5071652562891749   21   21   16   16
 -0.5071489661664597   21   21   17   17
 -0.5051191531036729   21   21   18   18
 -0.5048287307811549   21   21   19   19
 -0.5047377591325263   21   21   20   20
 -0.5046905143362637   21   21   21   21
 -0.5471832142318813   22   22    1    1
 -0.5468368068178061   22   22    2    2
 -0.5419376268215544   22   22    3    3
 -0.541855931095574   22   22    4    4
 -0.5418514736622209   22   22    5    5
 -0.5417888922076585   22   22    6    6
 -0.5344686546941377   22   22    7    7
 -0.5343876959584283   22   22    8    8
 -0.534336050100342   22   22    9    9
 -0.5342781330914023   22   22   10   10
 -0.5141065671162593   22   22   11   11
 -0.5129862367855506   22   22   12   12
 -0.509724932649625   22   22   13   13
 -0.5074069338090506   22   22   14   14
 -0.5073805816427717   22   22   15   15
 -0.507151799542442   22   22   16   16
 -0.5071355098519569   22   22   17   17
 -0.5051057506467244   22   22   18   18
 -0.5048153360300567   22   22   19   19
 -0.5047243667952025   22   22   20   20
 -0.5046771232524981   22   22   21   21
 -0.5046637325240417   22   22   22   22
 -0.5445681573885223   23   23    1    1
 -0.5442234054986941   23   23    2    2
 -0.5393476392948302   23   23    3    3
 -0.5392663340029159   23   23    4    4
 -0.5392618978721928   23   23    5    5
 -0.539199615502209   23   23    6    6
 -0.5319143623169843   23   23    7    7
 -0.5318337904931726   23   23    8    8
 -0.5317823914570852   23   23    9    9
 -0.5317247512407564   23   23   10   10
 -0.5116495876958647   23   23   11   11
 -0.5105346115635704   23   23   12   12
 -0.5072888936069666   23   23   13   13
 -0.5049819727720278   23   23   14   14
 -0.504955746546039   23   23   15   15
 -0.5047280578239081   23   23   16   16
 -0.5047118459838859   23   23   17   17
 -0.5026917872511131   23   23   18   18
 -0.5024027605621284   23   23   19   19
 -0.5023122260805962   23   23   20   20
 -0.5022652083206761   23   23   21   21
 -0.5022518815881816   23   23   22   22
 -0.4998515571888287   23   23   23   23
 -0.5444684776608154   24   24    1    1
 -0.5441237888756216   24   24    2    2
 -0.5392489151496614   24   24    3    3
 -0.5391676247401622   24   24    4    4
 -0.5391631894214447   24   24    5    5
 -0.5391009184518514   24   24    6    6
 -0.5318169987857536   24   24    7    7
 -0.5317364417101003   24   24    8    8
 -0.5316850520822786   24   24    9    9
 -0.5316274224166238   24   24   10   10
 -0.5115559335023704   24   24   11   11
 -0.5104411614593453   24   24   12   12
 -0.507196037610711   24   24   13   13
 -0.5048895390429162   24   24   14   14
 -0.5048633176174708   24   24   15   15
 -0.5046356705723082   24   24   16   16
 -0.5046194616997599   24   24   17   17
 -0.5025997727258532   24   24   18   18
 -0.5023107989413604   24   24   19   19
 -0.5022202810315877   24   24   20   20
 -0.5021732718779687   24   24   21   21
 -0.5021599475848475   24   24   22   22
 -0.4997600625495655   24   24   23   23
 -0.4996685846578126   24   24   24   24
 -0.5435636008138851   25   25    1    1
 -0.5432194848826103   25   25    2    2
 -0.5383527129303015   25   25    3    3
 -0.5382715576210192   25   25    4    4
 -0.5382671296735589   25   25    5    5
 -0.5382049621949131   25   25    6    6
 -0.5309331480051306   25   25    7    7
 -0.5308527248109334   25   25    8    8
 -0.5308014205898639   25   25    9    9
 -0.5307438867015631   25   25   10   10
 -0.5107057555046931   25   25   11   11
 -0.5095928361518655   25   25   12   12
 -0.5063531055216752   25   25   13   13
 -0.5040504402284174   25   25   14   14
 -0.5040242623815477   25   25   15   15
 -0.50379699367333   25   25   16   16
 -0.5037808117390418   25   25   17   17
 -0.5017644793778051   25   25   18   18
 -0.5014759858519456   25   25   19   19
 -0.5013856183779908   25   25   20   20
 -0.5013386873510153   25   25   21   21
 -0.501325385202141   25   25   22   22
 -0.4989294886445998   25   25   23   23
 -0.4988381627841023   25   25   24   24
 -0.4980091210261518   25   25   25   25
 -0.5435514214839232   26   26    1    1
 -0.5432073132630643   26   26    2    2
 -0.5383406503578319   26   26    3    3
 -0.5382594968669518   26   26    4    4
 -0.5382550690187061   26   26    5    5
 -0.5381929029330127   26   26    6    6
 -0.5309212516787621   26   26    7    7
 -0.5308408302865631   26   26    8    8
 -0.530789527215039   26   26    9    9
 -0.5307319946158684   26   26   10   10
 -0.510694312402358   26   26   11   11
 -0.5095814179861007   26   26   12   12
 -0.506341759946769   26   26   13   13
 -0.504039146248063   26   26   14   14
 -0.5040129689877457   26   26   15   15
 -0.5037857053718127   26   26   16   16
 -0.5037695238001043   26   26   17   17
 -0.5017532366177152   26   26   18   18
 -0.5014647495559712   26   26   19   19
 -0.5013743841068304   26   26   20   20
 -0.5013274541314127   26   26   21   21
 -0.5013141522805923   26   26   22   22
 -0.4989183094065845   26   26   23   23
 -0.4988269855923753   26   26   24   24
 -0.4979979624103064   26   26   25   25
 -0.497986804044486   26   26   26   26
 -0.5401146418823787   27   27    1    1
 -0.5397727093970022   27   27    2    2
 -0.5349368175414611   27   27    3    3
 -0.5348561771697654   27   27    4    4
 -0.5348517773180218   27   27    5    5
 -0.5347900042975045   27   27    6    6
 -0.5275643304093547   27   27    7    7
 -0.5274844175074095   27   27    8    8
 -0.5274334388161422   27   27    9    9
 -0.5273762699854311   27   27   10   10
 -0.5074652824962314   27   27   11   11
 -0.5063594247147382   27   27   12   12
 -0.5031402504607954   27   27   13   13
 -0.5008521957816727   27   27   14   14
 -0.5008261840355475   27   27   15   15
 -0.5006003573673042   27   27   16   16
 -0.5005842781088148   27   27   17   17
 -0.4985807395540355   27   27   18   18
 -0.498294076545012   27   27   19   19
 -0.4982042824606401   27   27   20   20
 -0.4981576492151653   27   27   21   21
 -0.4981444314695973   27   27   22   22
 -0.4957637370867763   27   27   23   23
 -0.4956729906969088   27   27   24   24
 -0.4948492092819456   27   27   25   25
 -0.4948381214685008   27   27   26   26
 -0.4917093474561237   27   27   27   27
 -0.5397448526102364   28   28    1    1
 -0.5394031542287981   28   28    2    2
 -0.5345705732646693   28   28    3    3
 -0.5344899881033717   28   28    4    4
 -0.5344855912639849   28   28    5    5
 -0.5344238605363412   28   28    6    6
 -0.5272031337029102   28   28    7    7
 -0.5271232755133011   28   28    8    8
 -0.5270723317245743   28   28    9    9
 -0.5270152020344802   28   28   10   10
 -0.5071178465948497   28   28   11   11
 -0.5060127459384415   28   28   12   12
 -0.5027957756908558   28   28   13   13
 -0.5005092875274482   28   28   14   14
 -0.5004832935902545   28   28   15   15
 -0.5002576215341488   28   28   16   16
 -0.500241553284317   28   28   17   17
 -0.4982393864514028   28   28   18   18
 -0.497952919706093   28   28   19   19
 -0.4978631870992049   28   28   20   20
 -0.4978165857811627   28   28   21   21
 -0.4978033770851189   28   28   22   22
 -0.4954243126437488   28   28   23   23
 -0.4953336283833606   28   28   24   24
 -0.4945104109700116   28   28   25   25
 -0.4944993307478337   28   28   26   26
 -0.4913726988493247   28   28   27   27
 -0.4910362807288589   28   28   28   28
 -0.5393165246602586   29   29    1    1
 -0.5389750974420682   29   29    2    2
 -0.5341463514927384   29   29    3    3
 -0.5340658302817994   29   29    4    4
 -0.5340614369316338   29   29    5    5
 -0.5339997551919442   29   29    6    6
 -0.5267847585458544   29   29    7    7
 -0.5267049637296977   29   29    8    8
 -0.5266540603686812   29   29    9    9
 -0.5265969760152732   29   29   10   10
 -0.5067154106168525   29   29   11   11
 -0.5056111869405514   29   29   12   12
 -0.5023967695997043   29   29   13   13
 -0.5001120959358383   29   29   14   14
 -0.5000861226267798   29   29   15   15
 -0.4998606296583462   29   29   16   16
 -0.4998445741598737   29   29   17   17
 -0.4978439961962389   29   29   18   18
 -0.4975577567837386   29   29   19   19
 -0.4974680953863921   29   29   20   20
 -0.4974215310499848   29   29   21   21
 -0.4974083328360303   29   29   22   22
 -0.4950311563604093   29   29   23   23
 -0.4949405440647711   29   29   24   24
 -0.4941179799360719   29   29   25   25
 -0.4941069085068798   29   29   26   26
 -0.4909827578248659   29   29   27   27
 -0.4906466066773655   29   29   28   28
 -0.490257241861406   29   29   29   29
 -0.5316197839743348   30   30    1    1
 -0.5312832293618247   30   30    2    2
 -0.5265233958298061   30   30    3    3
 -0.5264440237601451   30   30    4    4
 -0.5264396931087387   30   30    5    5
 -0.5263788916468335   30   30    6    6
 -0.519266862285623   30   30    7    7
 -0.519188206244156   30   30    8    8
 -0.519138029339593   30   30    9    9
 -0.5190817596533523   30   30   10   10
 -0.499483929772582   30   30   11   11
 -0.4983954647888244   30   30   12   12
 -0.4952269213190669   30   30   13   13
 -0.4929748528878216   30   30   14   14
 -0.4929492502513005   30   30   15   15
 -0.4927269753576432   30   30   16   16
 -0.4927111489917908   30   30   17   17
 -0.4907391218496199   30   30   18   18
 -0.4904569674418086   30   30   19   19
 -0.4903685856279596   30   30   20   20
 -0.490322685824542   30   30   21   21
 -0.4903096759660813   30   30   22   22
 -0.4879664248572179   30   30   23   23
 -0.4878771057156193   30   30   24   24
 -0.4870662806353391   30   30   25   25
 -0.487055367209686   30   30   26   26
 -0.4839758021774042   30   30   27   27
 -0.4836444483392671   30   30   28   28
 -0.4832606402601841   30   30   29   29
 -0.4763638891655663   30   30   30   30
 -0.5315732143637703   31   31    1    1
 -0.5312366892332653   31   31    2    2
 -0.5264772726601347   31   31    3    3
 -0.5263979075434247   31   31    4    4
 -0.5263935772713811   31   31    5    5
 -0.5263327811356517   31   31    6    6
 -0.5192213747844338   31   31    7    7
 -0.5191427256331941   31   31    8    8
 -0.5190925531241013   31   31    9    9
 -0.5190362883670553   31   31   10   10
 -0.4994401752457679   31   31   11   11
 -0.4983518056109645   31   31   12   12
 -0.4951835397039311   31   31   13   13
 -0.4929316685526837   31   31   14   14
 -0.4929060681589398   31   31   15   15
 -0.4926838127364451   31   31   16   16
 -0.4926679877569739   31   31   17   17
 -0.4906961333633327   31   31   18   18
 -0.4904140036720976   31   31   19   19
 -0.4903256296004486   31   31   20   20
 -0.4902797338178294   31   31   21   21
 -0.4902667250990253   31   31   22   22
 -0.4879236792577139   31   31   23   23
 -0.4878343679404246   31   31   24   24
 -0.4870236138879905   31   31   25   25
 -0.4870127014183477   31   31   26   26
 -0.4839334061543261   31   31   27   27
 -0.4836020813426093   31   31   28   28
 -0.4832183068849099   31   31   29   29
 -0.476322159942023   31   31   30   30
 -0.4762804343739376   31   31   31   31
 -0.5288017250596508   32   32    1    1
 -0.5284669544867019   32   32    2    2
 -0.5237323523168742   32   32    3    3
 -0.5236534009899605   32   32    4    4
 -0.5236490932948683   32   32    5    5
 -0.5235886141349296   32   32    6    6
 -0.5165142848713208   32   32    7    7
 -0.5164360457770132   32   32    8    8
 -0.5163861348547886   32   32    9    9
 -0.516330163448062   32   32   10   10
 -0.4968362195415704   32   32   11   11
 -0.4957535243928402   32   32   12   12
 -0.4926017770289476   32   32   13   13
 -0.4903616465686177   32   32   14   14
 -0.4903361796489006   32   32   15   15
 -0.4901150830103883   32   32   16   16
 -0.4900993405383877   32   32   17   17
 -0.4881377668985798   32   32   18   18
 -0.4878571081607346   32   32   19   19
 -0.4877691948493114   32   32   20   20
 -0.4877235383557819   32   32   21   21
 -0.4877105974611723   32   32   22   22
 -0.4853797676727258   32   32   23   23
 -0.485290922002226   32   32   24   24
 -0.4844843950179057   32   32   25   25
 -0.4844735394431404   32   32   26   26
 -0.4814102988516604   32   32   27   27
 -0.4810807014843426   32   32   28   28
 -0.4806989279303306   32   32   29   29
 -0.4738387357665322   32   32   30   30
 -0.4737972277450848   32   32   31   31
 -0.47132696793226   32   32   32   32
 -0.5286029525870261   33   33    1    1
 -0.5282683078517425   33   33    2    2
 -0.5235354853821987   33   33    3    3
 -0.5234565637324773   33   33    4    4
 -0.5234522576566144   33   33    5    5
 -0.5233918012303234   33   33    6    6
 -0.5163201311522907   33   33    7    7
 -0.5162419214674526   33   33    8    8
 -0.516192029306357   33   33    9    9
 -0.5161360789388488   33   33   10   10
 -0.4966494626548816   33   33   11   11
 -0.4955671744828717   33   33   12   12
 -0.4924166118364015   33   33   13   13
 -0.4901773234237607   33   33   14   14
 -0.4901518660768616   33   33   15   15
 -0.4899308525468631   33   33   16   16
 -0.4899151159923357   33   33   17   17
 -0.4879542796928657   33   33   18   18
 -0.4876737264524661   33   33   19   19
 -0.4875858461869759   33   33   20   20
 -0.4875402068553688   33   33   21   21
 -0.4875272708251412   33   33   22   22
 -0.4851973171775587   33   33   23   23
 -0.4851085049034583   33   33   24   24
 -0.4843022810863845   33   33   25   25
 -0.4842914295921457   33   33   26   26
 -0.4812293404490777   33   33   27   27
 -0.4808998669748573   33   33   28   28
 -0.4805182369265673   33   33   29   29
 -0.4736606234558678   33   33   30   30
 -0.4736191310369642   33   33   31   31
 -0.4711497997756696   33   33   32   32
 -0.4709726982152171   33   33   33   33
 -0.5280761509747277   34   34    1    1
 -0.527741839743798   34   34    2    2
 -0.5230137339685054   34   34    3    3
 -0.5229348909714894   34   34    4    4
 -0.5229305891870284   34   34    5    5
 -0.522870193011144   34   34    6    6
 -0.5158055705047915   34   34    7    7
 -0.5157274387631202   34   34    8    8
 -0.5156775963241663   34   34    9    9
 -0.5156217017163615   34   34   10   10
 -0.4961545056433984   34   34   11   11
 -0.4950732960714061   34   34   12   12
 -0.4919258732512907   34   34   13   13
 -0.4896888164961548   34   34   14   14
 -0.4896633845198505   34   34   15   15
 -0.4894425912502259   34   34   16   16
 -0.489426870378627   34   34   17   17
 -0.4874679882334404   34   34   18   18
 -0.4871877145902294   34   34   19   19
 -0.4870999219055317   34   34   20   20
 -0.4870543280577292   34   34   21   21
 -0.4870414049194494   34   34   22   22
 -0.4847137732856432   34   34   23   23
 -0.4846250495211679   34   34   24   24
 -0.4838196291805117   34   34   25   25
 -0.4838087885007881   34   34   26   26
 -0.4807497510120661   34   34   27   27
 -0.4804206058885608   34   34   28   28
 -0.4800393561698239   34   34   29   29
 -0.4731885769436461   34   34   30   30
 -0.4731471258757661   34   34   31   31
 -0.4706802555308993   34   34   32   32
 -0.4705033304684915   34   34   33   33
 -0.4700344304900304   34   34   34   34
 -0.5280179734565312   35   35    1    1
 -0.5276836990562701   35   35    2    2
 -0.522956114170738   35   35    3    3
 -0.5228772798597607   35   35    4    4
 -0.5228729785492221   35   35    5    5
 -0.5228125890271123   35   35    6    6
 -0.515748744821775   35   35    7    7
 -0.5156706216877842   35   35    8    8
 -0.5156207847399122   35   35    9    9
 -0.5155648962899495   35   35   10   10
 -0.4960998448947032   35   35   11   11
 -0.4950187544382768   35   35   12   12
 -0.4918716783659705   35   35   13   13
 -0.4896348680647027   35   35   14   14
 -0.4896094388902089   35   35   15   15
 -0.4893886699451148   35   35   16   16
 -0.4893729508054656   35   35   17   17
 -0.4874142844679829   35   35   18   18
 -0.4871340417021841   35   35   19   19
 -0.4870462586895015   35   35   20   20
 -0.4870006698647187   35   35   21   21
 -0.4869877481501655   35   35   22   22
 -0.4846603729487536   35   35   23   23
 -0.4845716589588693   35   35   24   24
 -0.4837663273504092   35   35   25   25
 -0.4837554878649902   35   35   26   26
 -0.480696787386771   35   35   27   27
 -0.4803676785247905   35   35   28   28
 -0.4799864708078793   35   35   29   29
 -0.4731364463238583   35   35   30   30
 -0.4730949998225928   35   35   31   31
 -0.4706284012498825   35   35   32   32
 -0.4704514956790973   35   35   33   33
 -0.4699826473587863   35   35   34   34
 -0.4699308699324278   35   35   35   35
 -0.5252163029901895   36   36    1    1
 -0.5248838022543905   36   36    2    2
 -0.5201813019978231   36   36    3    3
 -0.5201028859827599   36   36    4    4
 -0.5200986074950328   36   36    5    5
 -0.5200385384005392   36   36    6    6
 -0.5130121750475286   36   36    7    7
 -0.5129344664359372   36   36    8    8
 -0.5128848939235806   36   36    9    9
 -0.5128293020184849   36   36   10   10
 -0.4934675324476486   36   36   11   11
 -0.4923921782717192   36   36   12   12
 -0.4892618006273649   36   36   13   13
 -0.4870368588716295   36   36   14   14
 -0.4870115646246773   36   36   15   15
 -0.4867919670825742   36   36   16   16
 -0.4867763313488913   36   36   17   17
 -0.4848280577213294   36   36   18   18
 -0.4845493019274138   36   36   19   19
 -0.4844619846925767   36   36   20   20
 -0.4844166377627113   36   36   21   21
 -0.4844037846109491   36   36   22   22
 -0.4820887584936475   36   36   23   23
 -0.4820005152213863   36   36   24   24
 -0.4811994567132682   36   36   25   25
 -0.4811886747423046   36   36   26   26
 -0.4781462037699471   36   36   27   27
 -0.477818841164013   36   36   28   28
 -0.477439656140373   36   36   29   29
 -0.4706259779783625   36   36   30   30
 -0.47058475139279   36   36   31   31
 -0.46813124062527   36   36   32   32
 -0.4679552737178218   36   36   33   33
 -0.4674889131130019   36   36   34   34
 -0.4674374104183638   36   36   35   35
 -0.464957181234006   36   36   36   36
 -0.5174719766528669   37   37    1    1
 -0.5171443786479822   37   37    2    2
 -0.5125112168646895   37   37    3    3
 -0.5124339570955524   37   37    4    4
 -0.5124297416942243   37   37    5    5
 -0.5123705583198958   37   37    6    6
 -0.5054477988543892   37   37    7    7
 -0.5053712360580437   37   37    8    8
 -0.5053223944935097   37   37    9    9
 -0.5052676222923194   37   37   10   10
 -0.4861913424543244   37   37   11   11
 -0.4851318444001856   37   37   12   12
 -0.4820476242454197   37   37   13   13
 -0.4798554893064945   37   37   14   14
 -0.4798305680237893   37   37   15   15
 -0.4796142084524407   37   37   16   16
 -0.4795988032680067   37   37   17   17
 -0.4776792569794104   37   37   18   18
 -0.4774046114460183   37   37   19   19
 -0.4773185817057956   37   37   20   20
 -0.4772739034174427   37   37   21   21
 -0.4772612397856957   37   37   22   22
 -0.4749803487811652   37   37   23   23
 -0.4748934066579612   37   37   24   24
 -0.4741041597757711   37   37   25   25
 -0.4740935367852147   37   37   26   26
 -0.4710959271165668   37   37   27   27
 -0.4707733914797055   37   37   28   28
 -0.4703997975478663   37   37   29   29
 -0.4636865872253796   37   37   30   30
 -0.4636459685267493   37   37   31   31
 -0.4612286348313186   37   37   32   32
 -0.4610552625599245   37   37   33   33
 -0.4605957784528332   37   37   34   34
 -0.4605450351665994   37   37   35   35
 -0.4581013770179951   37   37   36   36
 -0.4513466617911328   37   37   37   37
 -0.5174383630711773   38   38    1    1
 -0.5171107863461741   38   38    2    2
 -0.5124779255205545   38   38    3    3
 -0.5124006707700034   38   38    4    4
 -0.5123964556424964   38   38    5    5
 -0.5123372761125599   38   38    6    6
 -0.5054149663308068   38   38    7    7
 -0.5053384085077737   38   38    8    8
 -0.5052895701158558   38   38    9    9
 -0.5052348014725198   38   38   10   10
 -0.4861597607781299   38   38   11   11
 -0.4851003315461225   38   38   12   12
 -0.4820163117339661   38   38   13   13
 -0.4798243191902046   38   38   14   14
 -0.4797993995263186   38   38   15   15
 -0.4795830540091032   38   38   16   16
 -0.4795676498253484   38   38   17   17
 -0.4776482282252936   38   38   18   18
 -0.4773736005321334   38   38   19   19
 -0.4772875763801701   38   38   20   20
 -0.4772429009939981   38   38   21   21
 -0.4772302381848465   38   38   22   22
 -0.474949495340834   38   38   23   23
 -0.4748625588651554   38   38   24   24
 -0.4740733632503107   38   38   25   25
 -0.474062740949795   38   38   26   26