 &FCI NORB=   6,NELEC= 8,MS2=0,
  ORBSYM=1,1,1,1,1,1,
  ISYM=1,
 &END
 -1.029178944875083    1    1    1    1
 -1.029178944875086    2    2    1    1
 -1.029178944875089    2    2    2    2
 -1.164396291773946    3    3    1    1
 -1.16439629177395    3    3    2    2
 -1.31737899521592    3    3    3    3
 -1.164396291773946    4    4    1    1
 -1.16439629177395    4    4    2    2
 -1.31737899521592    4    4    3    3
 -1.31737899521592    4    4    4    4
 -1.328539067374759    5    5    1    1
 -1.328539067374764    5    5    2    2
 -1.50308745746421    5    5    3    3
 -1.503087457464211    5    5    4    4
 -1.714974895600129    5    5    5    5
 -1.475441747740719    6    6    1    1
 -1.475441747740724    6    6    2    2
 -1.669290756823913    6    6    3    3
 -1.669290756823914    6    6    4    4
 -1.904607564379544    6    6    5    5
 -2.115208790285166    6    6    6    6
 -0.5145894724375413    1    1  0  0
 -0.5145894724375445    2    2  0  0
 -0.6586894976079598    3    3  0  0
 -0.6586894976079601    4    4  0  0
 -0.8574874478000645    5    5  0  0
 -1.057604395142583    6    6  0  0
 -162.6449083198988  0  0  0  0
