 &FCI NORB=  73,NELEC=99,MS2=3,
  ORBSYM=1,1,1,1,1,1,1,1,1,1,1,1,1,1,1,1,1,1,1,1,1,1,1,1,1,1,1,1,1,1,1,1,1,1,1,1,1,1,1,1,1,1,1,1,1,1,1,1,1,1,1,1,1,1,1,1,1,1,1,1,1,1,1,1,1,1,1,1,1,1,1,1,1,
  ISYM=1,
 &END
 -0.2706289645794077    1    1    1    1
 -0.2719422481170024    2    2    1    1
 -0.2732619046370781    2    2    2    2
 -0.2722823220911869    3    3    1    1
 -0.2736036288912042    3    3    2    2
 -0.2739457804843187    3    3    3    3
 -0.2754492317118373    4    4    1    1
 -0.2767859066018014    4    4    2    2
 -0.2771320377524707    4    4    3    3
 -0.2803553543079054    4    4    4    4
 -0.2755426208374268    5    5    1    1
 -0.2768797489176154    5    5    2    2
 -0.277225997421618    5    5    3    3
 -0.2804504068198708    5    5    4    4
 -0.2805454915587221    5    5    5    5
 -0.2761060312740979    6    6    1    1
 -0.2774458934210282    6    6    2    2
 -0.2777928499099525    6    6    3    3
 -0.2810238523568652    6    6    4    4
 -0.2811191315183945    6    6    5    5
 -0.2816939444172631    6    6    6    6
 -0.2770764535060782    7    7    1    1
 -0.2784210248294403    7    7    2    2
 -0.2787692007567406    7    7    3    3
 -0.2820115591185952    7    7    4    4
 -0.2821071731551584    7    7    5    5
 -0.2826840063330253    7    7    6    6
 -0.283677547992021    7    7    7    7
 -0.2797519826424655    8    8    1    1
 -0.2811095375294113    8    8    2    2
 -0.2814610755426135    8    8    3    3
 -0.2847347430401163    8    8    4    4
 -0.2848312803530439    8    8    5    5
 -0.2854136835963375    8    8    6    6
 -0.2864168191765172    8    8    7    7
 -0.289182541543616    8    8    8    8
 -0.2812075492728765    9    9    1    1
 -0.2825721676007091    9    9    2    2
 -0.2829255346876377    9    9    3    3
 -0.2862162352768219    9    9    4    4
 -0.2863132748792775    9    9    5    5
 -0.2868987084021722    9    9    6    6
 -0.2879070633579663    9    9    7    7
 -0.2906871759472487    9    9    8    8
 -0.2921996390554655    9    9    9    9
 -0.2833509746122302   10   10    1    1
 -0.284725994358908   10   10    2    2
 -0.2850820548869272   10   10    3    3
 -0.2883978379144931   10   10    4    4
 -0.2884956171739861   10   10    5    5
 -0.2890855129990157   10   10    6    6
 -0.2901015538564469   10   10    7    7
 -0.292902857070894   10   10    8    8
 -0.2944268485031525   10   10    9    9
 -0.2966710342275382   10   10   10   10
 -0.2847529555788078   11   11    1    1
 -0.286134778730754   11   11    2    2
 -0.2864926009964342   11   11    3    3
 -0.2898247900543668   11   11    4    4
 -0.2899230531119514   11   11    5    5
 -0.2905158676589656   11   11    6    6
 -0.2915369357443615   11   11    7    7
 -0.294352099415063   11   11    8    8
 -0.2958836313436412   11   11    9    9
 -0.2981389209849107   11   11   10   10
 -0.2996140706405237   11   11   11   11
 -0.2852551294491909   12   12    1    1
 -0.2866393895046593   12   12    2    2
 -0.286997842805026   12   12    3    3
 -0.2903359083191756   12   12    4    4
 -0.2904343446678146   12   12    5    5
 -0.2910282046683338   12   12    6    6
 -0.2920510734504471   12   12    7    7
 -0.2948712017812464   12   12    8    8
 -0.2964054346311008   12   12    9    9
 -0.2986647015709578   12   12   10   10
 -0.300142452715326   12   12   11   11
 -0.3006717666142457   12   12   12   12
 -0.2865900163537179   13   13    1    1
 -0.2879807542265146   13   13    2    2
 -0.2883408849537429   13   13    3    3
 -0.2916945713611955   13   13    4    4
 -0.2917934683549875   13   13    5    5
 -0.2923901073973397   13   13    6    6
 -0.2934177628213091   13   13    7    7
 -0.296251088293857   13   13    8    8
 -0.2977925007774089   13   13    9    9
 -0.3000623402382848   13   13   10   10
 -0.3015470067031752   13   13   11   11
 -0.3020787975924069   13   13   12   12
 -0.3034924129472648   13   13   13   13
 -0.2866325248213532   14   14    1    1
 -0.2880234689753616   14   14    2    2
 -0.2883836531189844   14   14    3    3
 -0.2917378369620138   14   14    4    4
 -0.2918367486247037   14   14    5    5
 -0.292433476163549   14   14    6    6
 -0.2934612840145215   14   14    7    7
 -0.2962950297401044   14   14    8    8
 -0.2978366708536815   14   14    9    9
 -0.3001068469885229   14   14   10   10
 -0.3015917336665846   14   14   11   11
 -0.3021236034337063   14   14   12   12
 -0.3035374284630789   14   14   13   13
 -0.3035824506558198   14   14   14   14
 -0.2878219878471469   15   15    1    1
 -0.2892187041187584   15   15    2    2
 -0.2895803829487277   15   15    3    3
 -0.2929484859297387   15   15    4    4
 -0.2930478080544501   15   15    5    5
 -0.2936470118836061   15   15    6    6
 -0.2946790849150117   15   15    7    7
 -0.2975245900728752   15   15    8    8
 -0.2990726286638662   15   15    9    9
 -0.3013522255389957   15   15   10   10
 -0.3028432741758307   15   15   11   11
 -0.3033773510875287   15   15   12   12
 -0.3047970431851916   15   15   13   13
 -0.3048422522103014   15   15   14   14
 -0.306107281668943   15   15   15   15
 -0.2900123707000412   16   16    1    1
 -0.2914197162616335   16   16    2    2
 -0.2917841475397857   16   16    3    3
 -0.2951778824576461   16   16    4    4
 -0.2952779604435775   16   16    5    5
 -0.295881724333633   16   16    6    6
 -0.2969216516470823   16   16    7    7
 -0.2997888116679124   16   16    8    8
 -0.3013486311419787   16   16    9    9
 -0.3036455762049381   16   16   10   10
 -0.3051479720199071   16   16   11   11
 -0.305686113363646   16   16   12   12
 -0.3071166096019182   16   16   13   13
 -0.3071621626767448   16   16   14   14
 -0.308436819262401   16   16   15   15
 -0.3107840851025369   16   16   16   16
 -0.2901517684467334   17   17    1    1
 -0.2915597904649874   17   17    2    2
 -0.291924396911181   17   17    3    3
 -0.2953197630663549   17   17    4    4
 -0.2954198891559092   17   17    5    5
 -0.2960239432519501   17   17    6    6
 -0.2970643704182982   17   17    7    7
 -0.2999329085722244   17   17    8    8
 -0.3014934777912737   17   17    9    9
 -0.3037915269070198   17   17   10   10
 -0.3052946448656365   17   17   11   11
 -0.305833044873137   17   17   12   12
 -0.307264228695707   17   17   13   13
 -0.3073098036661374   17   17   14   14
 -0.3085850729299888   17   17   15   15
 -0.3109334670101656   17   17   16   16
 -0.3110829207199085   17   17   17   17
 -0.2902982600741245   18   18    1    1
 -0.2917069929735768   18   18    2    2
 -0.2920717835020248   18   18    3    3
 -0.2954688639073524   18   18    4    4
 -0.2955690405484988   18   18    5    5
 -0.2961733996189604   18   18    6    6
 -0.2972143520754683   18   18    7    7
 -0.3000843384949855   18   18    8    8
 -0.30164569561316   18   18    9    9
 -0.3039449049663797   18   18   10   10
 -0.3054487818181684   18   18   11   11
 -0.3059874536526983   18   18   12   12
 -0.3074193600503826   18   18   13   13
 -0.3074649580306731   18   18   14   14
 -0.3087408711516025   18   18   15   15
 -0.3110904508873844   18   18   16   16
 -0.3112399800532145   18   18   17   17
 -0.3113971186825299   18   18   18   18
 -0.2903989155017255   19   19    1    1
 -0.2918081368526496   19   19    2    2
 -0.2921730538653095   19   19    3    3
 -0.2955713121439756   19   19    4    4
 -0.2956715235194763   19   19    5    5
 -0.2962760921400079   19   19    6    6
 -0.2973174055270794   19   19    7    7
 -0.3001883870600712   19   19    8    8
 -0.3017502855492767   19   19    9    9
 -0.3040502921098257   19   19   10   10
 -0.3055546904024509   19   19   11   11
 -0.3060935490112447   19   19   12   12
 -0.3075259518953727   19   19   13   13
 -0.3075715656858999   19   19   14   14
 -0.3088479212055565   19   19   15   15
 -0.3111983156136445   19   19   16   16
 -0.3113478966258829   19   19   17   17
 -0.311505089740044   19   19   18   18
 -0.311613098234479   19   19   19   19
 -0.2906276627090758   20   20    1    1
 -0.2920379941035688   20   20    2    2
 -0.2924031985613364   20   20    3    3
 -0.2958041336478335   20   20    4    4
 -0.2959044239598284   20   20    5    5
 -0.296509468799024   20   20    6    6
 -0.2975516024285846   20   20    7    7
 -0.3004248454335481   20   20    8    8
 -0.3019879742300947   20   20    9    9
 -0.3042897925056657   20   20   10   10
 -0.3057953758127308   20   20   11   11
 -0.3063346588804167   20   20   12   12
 -0.3077681900682057   20   20   13   13
 -0.3078138397887128   20   20   14   14
 -0.3090912006935315   20   20   15   15
 -0.3114434465071458   20   20   16   16
 -0.3115931453443381   20   20   17   17
 -0.3117504622795053   20   20   18   18
 -0.3118585558522244   20   20   19   19
 -0.3121042068169199   20   20   20   20
 -0.2909151066964245   21   21    1    1
 -0.2923268329728627   21   21    2    2
 -0.2926923986344626   21   21    3    3
 -0.2960966974005657   21   21    4    4
 -0.2961970869042442   21   21    5    5
 -0.2968027301603265   21   21    6    6
 -0.297845894507483   21   21    7    7
 -0.300721979280564   21   21    8    8
 -0.3022866540826417   21   21    9    9
 -0.3045907489612626   21   21   10   10
 -0.3060978213587502   21   21   11   11
 -0.3066376378019373   21   21   12   12
 -0.3080725868173233   21   21   13   13
 -0.3081182816874818   21   21   14   14
 -0.3093969059603789   21   21   15   15
 -0.3117514782521736   21   21   16   16
 -0.3119013251483299   21   21   17   17
 -0.3120587976771068   21   21   18   18
 -0.3121669981592897   21   21   19   19
 -0.3124128920839708   21   21   20   20
 -0.3127218826548018   21   21   21   21
 -0.2912882759110293   22   22    1    1
 -0.2927018130689711   22   22    2    2
 -0.2930678476572363   22   22    3    3
 -0.2964765132625566   22   22    4    4
 -0.2965770315401329   22   22    5    5
 -0.29718345168065   22   22    6    6
 -0.2982279541392045   22   22    7    7
 -0.3011077281888862   22   22    8    8
 -0.3026744100660643   22   22    9    9
 -0.3049814605054534   22   22   10   10
 -0.3064904660889805   22   22   11   11
 -0.3070309749777418   22   22   12   12
 -0.3084677646634291   22   22   13   13
 -0.3085135181483464   22   22   14   14
 -0.3097937825671304   22   22   15   15
 -0.312151375169224   22   22   16   16
 -0.3123014142803848   22   22   17   17
 -0.3124590888058904   22   22   18   18
 -0.3125674280814464   22   22   19   19
 -0.3128136374247519   22   22   20   20
 -0.3131230243509662   22   22   21   21
 -0.3135246806086926   22   22   22   22
 -0.2915646763062736   23   23    1    1
 -0.2929795547548249   23   23    2    2
 -0.2933459366694784   23   23    3    3
 -0.2967578367219032   23   23    4    4
 -0.2968584503802207   23   23    5    5
 -0.29746544594646   23   23    6    6
 -0.2985109395224615   23   23    7    7
 -0.301393446159588   23   23    8    8
 -0.3029616146447963   23   23    9    9
 -0.3052708542201926   23   23   10   10
 -0.3067812916833187   23   23   11   11
 -0.3073223134553056   23   23   12   12
 -0.3087604664956825   23   23   13   13
 -0.3088062633956026   23   23   14   14
 -0.3100877426438893   23   23   15   15
 -0.3124475723409191   23   23   16   16
 -0.3125977538226217   23   23   17   17
 -0.3127555779638337   23   23   18   18
 -0.3128640200413939   23   23   19   19
 -0.3131104630101675   23   23   20   20
 -0.3134201435103968   23   23   21   21
 -0.3138221808955409   23   23   22   22
 -0.3141199634772965   23   23   23   23
 -0.2928015525679244   24   24    1    1
 -0.2942224332167021   24   24    2    2
 -0.2945903693974577   24   24    3    3
 -0.2980167434192104   24   24    4    4
 -0.2981177839009935   24   24    5    5
 -0.2987273544650558   24   24    6    6
 -0.2997772832360277   24   24    7    7
 -0.3026720180486611   24   24    8    8
 -0.3042468390214005   24   24    9    9
 -0.3065658748576109   24   24   10   10
 -0.308082719901609   24   24   11   11
 -0.3086260367972552   24   24   12   12
 -0.3100702907733791   24   24   13   13
 -0.3101162819530011   24   24   14   14
 -0.311403197495156   24   24   15   15
 -0.3137730380665166   24   24   16   16
 -0.3139238566484057   24   24   17   17
 -0.3140823503115099   24   24   18   18
 -0.3141912524222717   24   24   19   19
 -0.3144387408519076   24   24   20   20
 -0.3147497350793836   24   24   21   21
 -0.315153477988339   24   24   22   22
 -0.3154525238239674   24   24   23   23
 -0.3167907371608458   24   24   24   24
 -0.2931350001046728   25   25    1    1
 -0.2945574988772213   25   25    2    2
 -0.2949258540701443   25   25    3    3
 -0.298356130106649   25   25    4    4
 -0.2984572856551025   25   25    5    5
 -0.2990675504088004   25   25    6    6
 -0.3001186748570471   25   25    7    7
 -0.3030167062443891   25   25    8    8
 -0.3045933206508366   25   25    9    9
 -0.3069149974456774   25   25   10   10
 -0.3084335698993804   25   25   11   11
 -0.3089775055338241   25   25   12   12
 -0.3104234042516734   25   25   13   13
 -0.3104694478068564   25   25   14   14
 -0.3117578289109721   25   25   15   15
 -0.3141303682982854   25   25   16   16
 -0.3142813586350172   25   25   17   17
 -0.3144400327934811   25   25   18   18
 -0.3145490589238742   25   25   19   19
 -0.3147968291976688   25   25   20   20
 -0.3151081775908183   25   25   21   21
 -0.3155123802892703   25   25   22   22
 -0.3158117666835344   25   25   23   23
 -0.3171515040012009   25   25   24   24
 -0.3175126816891529   25   25   25   25
 -0.293218713556441   26   26    1    1
 -0.2946416185659873   26   26    2    2
 -0.295010078953734   26   26    3    3
 -0.2984413346079828   26   26    4    4
 -0.2985425190444236   26   26    5    5
 -0.2991529580774433   26   26    6    6
 -0.3002043827056609   26   26    7    7
 -0.3031032417123956   26   26    8    8
 -0.3046803063681617   26   26    9    9
 -0.3070026461871324   26   26   10   10
 -0.3085216523145415   26   26   11   11
 -0.3090657432860465   26   26   12   12
 -0.3105120549234467   26   26   13   13
 -0.3105581116277416   26   26   14   14
 -0.3118468606675504   26   26   15   15
 -0.3142200776043255   26   26   16   16
 -0.3143711110608562   26   26   17   17
 -0.3145298305334638   26   26   18   18
 -0.3146388877995238   26   26   19   19
 -0.314886728831518   26   26   20   20
 -0.3151981661394976   26   26   21   21
 -0.3156024842700988   26   26   22   22
 -0.315901956163087   26   26   23   23
 -0.3172420760827467   26   26   24   24
 -0.3176033569157716   26   26   25   25
 -0.3176940580374087   26   26   26   26
 -0.2932260738027287   27   27    1    1
 -0.2946490145294064   27   27    2    2
 -0.2950174841660826   27   27    3    3
 -0.2984488259501912   27   27    4    4
 -0.2985500129265189   27   27    5    5
 -0.2991604672825088   27   27    6    6
 -0.3002119183031218   27   27    7    7
 -0.3031108500757315   27   27    8    8
 -0.3046879543182762   27   27    9    9
 -0.3070103524315925   27   27   10   10
 -0.3085293966884206   27   27   11   11
 -0.3090735013174562   27   27   12   12
 -0.3105198492595306   27   27   13   13
 -0.3105659071199205   27   27   14   14
 -0.311854688509337   27   27   15   15
 -0.3142279650175525   27   27   16   16
 -0.3143790022652582   27   27   17   17
 -0.3145377257219718   27   27   18   18
 -0.3146467857255388   27   27   19   19
 -0.3148946329787289   27   27   20   20
 -0.3152060781042698   27   27   21   21
 -0.3156104063838858   27   27   22   22
 -0.3159098857940848   27   27   23   23
 -0.3172500393528412   27   27   24   24
 -0.3176113292545776   27   27   25   25
 -0.317702032652954   27   27   26   26
 -0.3177100074686747   27   27   27   27
 -0.2944423857673842   28   28    1    1
 -0.2958712289017448   28   28    2    2
 -0.2962412269633045   28   28    3    3
 -0.2996868020726176   28   28    4    4
 -0.2997884087760465   28   28    5    5
 -0.300401395317962   28   28    6    6
 -0.3014572077940214   28   28    7    7
 -0.3043681644365683   28   28    8    8
 -0.305951810562428   28   28    9    9
 -0.3082838420639873   28   28   10   10
 -0.309809187369288   28   28   11   11
 -0.3103555489632712   28   28   12   12
 -0.3118078964069731   28   28   13   13
 -0.3118541453169717   28   28   14   14
 -0.3131482726164685   28   28   15   15
 -0.3155313935582808   28   28   16   16
 -0.3156830573137493   28   28   17   17
 -0.3158424391608883   28   28   18   18
 -0.3159519515491478   28   28   19   19
 -0.3162008268813744   28   28   20   20
 -0.316513563892141   28   28   21   21
 -0.3169195693395401   28   28   22   22
 -0.3172202910007609   28   28   23   23
 -0.3185660035631449   28   28   24   24
 -0.3189287921079743   28   28   25   25
 -0.3190198717472056   28   28   26   26
 -0.3190278796427395   28   28   27   27
 -0.3203512183964726   28   28   28   28
 -0.2951765426493241   29   29    1    1
 -0.2966089484331911   29   29    2    2
 -0.296979869040676   29   29    3    3
 -0.3004340352795309   29   29    4    4
 -0.3005358953271255   29   29    5    5
 -0.3011504102776875   29   29    6    6
 -0.3022088552959106   29   29    7    7
 -0.3051270700607778   29   29    8    8
 -0.3067146648188931   29   29    9    9
 -0.3090525109621566   29   29   10   10
 -0.3105816595335879   29   29   11   11
 -0.3111293834148764   29   29   12   12
 -0.3125853521132695   29   29   13   13
 -0.3126317163393952   29   29   14   14
 -0.3139290703905723   29   29   15   15
 -0.3163181333594993   29   29   16   16
 -0.3164701752704073   29   29   17   17
 -0.3166299545171246   29   29   18   18
 -0.3167397399614296   29   29   19   19
 -0.3169892358345388   29   29   20   20
 -0.3173027526176472   29   29   21   21
 -0.3177097703910826   29   29   22   22
 -0.3180112418658078   29   29   23   23
 -0.3193603098015571   29   29   24   24
 -0.3197240029162437   29   29   25   25
 -0.3198153096516649   29   29   26   26
 -0.3198233375139288   29   29   27   27
 -0.3211499758546104   29   29   28   28
 -0.3219507249189614   29   29   29   29
 -0.2954536179224989   30   30    1    1
 -0.2968873682719614   30   30    2    2
 -0.2972586370538904   30   30    3    3
 -0.3007160456372949   30   30    4    4
 -0.3008180012985188   30   30    5    5
 -0.3014330930798013   30   30    6    6
 -0.302492531635451   30   30    7    7
 -0.3054134856598336   30   30    8    8
 -0.307002570655782   30   30    9    9
 -0.3093426112801955   30   30   10   10
 -0.3108731952274001   30   30   11   11
 -0.3114214332442045   30   30   12   12
 -0.3128787686261464   30   30   13   13
 -0.3129251763732798   30   30   14   14
 -0.3142237482201697   30   30   15   15
 -0.3166150537462755   30   30   16   16
 -0.3167672383753468   30   30   17   17
 -0.3169271676030823   30   30   18   18
 -0.3170370561004   30   30   19   19
 -0.317286786169413   30   30   20   20
 -0.3176005972433467   30   30   21   21
 -0.3180079970747862   30   30   22   22
 -0.3183097515336891   30   30   23   23
 -0.3196600858077575   30   30   24   24
 -0.3200241203126108   30   30   25   25
 -0.3201155127555155   30   30   26   26
 -0.3201235481533448   30   30   27   27
 -0.3214514317782124   30   30   28   28
 -0.3222529324868633   30   30   29   29
 -0.3225554237298963   30   30   30   30
 -0.2960560395249814   31   31    1    1
 -0.2974927132510103   31   31    2    2
 -0.2978647390395251   31   31    3    3
 -0.301329197181618   31   31    4    4
 -0.3014313607275625   31   31    5    5
 -0.3020477066636567   31   31    6    6
 -0.3031093053846716   31   31    7    7
 -0.3060362151520115   31   31    8    8
 -0.3076285402474938   31   31    9    9
 -0.3099733521488094   31   31   10   10
 -0.3115070569135578   31   31   11   11
 -0.3120564127722318   31   31   12   12
 -0.3135167196199568   31   31   13   13
 -0.3135632219911791   31   31   14   14
 -0.3148644415894773   31   31   15   15
 -0.3172606229201753   31   31   16   16
 -0.3174131178494174   31   31   17   17
 -0.3175733731683423   31   31   18   18
 -0.3176834857252098   31   31   19   19
 -0.3179337249867973   31   31   20   20
 -0.3182481759126691   31   31   21   21
 -0.3186564064208864   31   31   22   22
 -0.3189587761486291   31   31   23   23
 -0.3203118637162362   31   31   24   24
 -0.3206766404771883   31   31   25   25
 -0.3207682192667091   31   31   26   26
 -0.3207762710484881   31   31   27   27
 -0.3221068621906534   31   31   28   28
 -0.3229099971366668   31   31   29   29
 -0.3232131051508216   31   31   30   30
 -0.3238721275656339   31   31   31   31
 -0.2966151751829098   32   32    1    1
 -0.2980545622314242   32   32    2    2
 -0.2984272906331482   32   32    3    3
 -0.3018982918002905   32   32    4    4
 -0.3020006482937647   32   32    5    5
 -0.3026181582695828   32   32    6    6
 -0.3036817619410802   32   32    7    7
 -0.3066141995119436   32   32    8    8
 -0.3082095318953075   32   32    9    9
 -0.3105587722418163   32   32   10   10
 -0.3120953735832537   32   32   11   11
 -0.312645766963236   32   32   12   12
 -0.3141088317672972   32   32   13   13
 -0.3141554219635609   32   32   14   14
 -0.3154590990637475   32   32   15   15
 -0.3178598058566756   32   32   16   16
 -0.3180125887900156   32   32   17   17
 -0.318173146769421   32   32   18   18
 -0.3182834672864336   32   32   19   19
 -0.3185341791534589   32   32   20   20
 -0.3188492239558333   32   32   21   21
 -0.3192582254540096   32   32   22   22
 -0.3195611662415318   32   32   23   23
 -0.3209168092696139   32   32   24   24
 -0.3212822749531583   32   32   25   25
 -0.3213740266996868   32   32   26   26
 -0.3213820936881758   32   32   27   27
 -0.3227151978037461   32   32   28   28
 -0.323519849561871   32   32   29   29
 -0.3238235300301435   32   32   30   30
 -0.324483797084086   32   32   31   31
 -0.3250966218103128   32   32   32   32
 -0.2974501845995494   33   33    1    1
 -0.2988936237055453   33   33    2    2
 -0.2992674013850923   33   33    3    3
 -0.3027481738616692   33   33    4    4
 -0.3028508185016816   33   33    5    5
 -0.3034700668465645   33   33    6    6
 -0.3045366646975766   33   33    7    7
 -0.3074773574529021   33   33    8    8
 -0.3090771808996849   33   33    9    9
 -0.3114330346563474   33   33   10   10
 -0.3129739617258562   33   33   11   11
 -0.3135259045331558   33   33   12   12
 -0.3149930880505897   33   33   13   13
 -0.3150398094041772   33   33   14   14
 -0.3163471565210925   33   33   15   15
 -0.3187546216087621   33   33   16   16
 -0.3189078346454776   33   33   17   17
 -0.3190688446160012   33   33   18   18
 -0.3191794756992904   33   33   19   19
 -0.3194308933520858   33   33   20   20
 -0.3197468250456196   33   33   21   21
 -0.3201569779349957   33   33   22   22
 -0.3204607715393372   33   33   23   23
 -0.3218202308748396   33   33   24   24
 -0.3221867253907323   33   33   25   25
 -0.3222787354300886   33   33   26   26
 -0.3222868251281754   33   33   27   27
 -0.3236236821012629   33   33   28   28
 -0.3244305990563546   33   33   29   29
 -0.3247351344237418   33   33   30   30
 -0.3253972602133582   33   33   31   31
 -0.3260118101190767   33   33   32   32
 -0.3269295747992462   33   33   33   33
 -0.2989637112707454   34   34    1    1
 -0.3004144950808238   34   34    2    2
 -0.3007901746670308   34   34    3    3
 -0.3042886584857162   34   34    4    4
 -0.3043918254162107   34   34    5    5
 -0.3050142247051325   34   34    6    6
 -0.3060862497650641   34   34    7    7
 -0.309041905755067   34   34    8    8
 -0.3106498696421024   34   34    9    9
 -0.3130177107757403   34   34   10   10
 -0.3145664786009078   34   34   11   11
 -0.3151212298790138   34   34   12   12
 -0.3165958789200887   34   34   13   13
 -0.3166428380076514   34   34   14   14
 -0.3179568373467955   34   34   15   15
 -0.3203765524272666   34   34   16   16
 -0.3205305450634897   34   34   17   17
 -0.3206923743069447   34   34   18   18
 -0.320803568318428   34   34   19   19
 -0.3210562652688767   34   34   20   20
 -0.3213738045292207   34   34   21   21
 -0.3217860444145694   34   34   22   22
 -0.3220913838230372   34   34   23   23
 -0.3234577605452794   34   34   24   24
 -0.3238261199086436   34   34   25   25
 -0.3239185981260538   34   34   26   26
 -0.3239267289872478   34   34   27   27
 -0.3252703883386462   34   34   28   28
 -0.3260814111588415   34   34   29   29
 -0.3263874961046951   34   34   30   30
 -0.3270529910132233   34   34   31   31
 -0.3276706679557407   34   34   32   32
 -0.328593102531554   34   34   33   33
 -0.3302650948529645   34   34   34   34
 -0.2990874231822526   35   35    1    1
 -0.3005388073302033   35   35    2    2
 -0.3009146423735375   35   35    3    3
 -0.3044145738733437   35   35    4    4
 -0.3045177834945652   35   35    5    5
 -0.3051404403338279   35   35    6    6
 -0.3062129090003389   35   35    7    7
 -0.3091697880479855   35   35    8    8
 -0.3107784173143919   35   35    9    9
 -0.313147238266455   35   35   10   10
 -0.3146966469755187   35   35   11   11
 -0.3152516278110541   35   35   12   12
 -0.3167268870654921   35   35   13   13
 -0.3167738655848394   35   35   14   14
 -0.3180884086601088   35   35   15   15
 -0.3205091250245707   35   35   16   16
 -0.3206631813833215   35   35   17   17
 -0.3208250775921115   35   35   18   18
 -0.3209363176159474   35   35   19   19
 -0.3211891191330092   35   35   20   20
 -0.3215067897918722   35   35   21   21
 -0.3219192002630891   35   35   22   22
 -0.3222246660217474   35   35   23   23
 -0.3235916081540035   35   35   24   24
 -0.3239601199453689   35   35   25   25
 -0.3240526364304906   35   35   26   26
 -0.3240607706562548   35   35   27   27
 -0.3254049860171638   35   35   28   28
 -0.3262163444405764   35   35   29   29
 -0.3265225560451256   35   35   30   30
 -0.327188326337067   35   35   31   31
 -0.3278062588758069   35   35   32   32
 -0.3287290751572932   35   35   33   33
 -0.3304017593531965   35   35   34   34
 -0.3305384804055315   35   35   35   35
 -0.3008043614136174   36   36    1    1
 -0.3022640773627034   36   36    2    2
 -0.3026420699208797   36   36    3    3
 -0.3061620930919947   36   36    4    4
 -0.3062658951973221   36   36    5    5
 -0.3068921264541279   36   36    6    6
 -0.3079707517234004   36   36    7    7
 -0.3109446050009507   36   36    8    8
 -0.3125624687482264   36   36    9    9
 -0.3149448881298474   36   36   10   10
 -0.3165031913588489   36   36   11   11
 -0.3170613581117461   36   36   12   12
 -0.3185450862245137   36   36   13   13
 -0.3185923344282732   36   36   14   14
 -0.3199144237562025   36   36   15   15
 -0.3223490364605011   36   36   16   16
 -0.3225039771936241   36   36   17   17
 -0.32266680278215   36   36   18   18
 -0.3227786813893398   36   36   19   19
 -0.3230329341362293   36   36   20   20
 -0.323352428412058   36   36   21   21
 -0.3237672063626477   36   36   22   22
 -0.3240744256749454   36   36   23   23
 -0.325449214861357   36   36   24   24
 -0.3258198421277785   36   36   25   25
 -0.3259128897120974   36   36   26   26
 -0.3259210706331155   36   36   27   27
 -0.3272730025831067   36   36   28   28
 -0.3280890186824645   36   36   29   29
 -0.3283969881222485   36   36   30   30
 -0.3290665803283827   36   36   31   31
 -0.3296880601643939   36   36   32   32
 -0.3306161739556765   36   36   33   33
 -0.3322984603455282   36   36   34   34
 -0.332435966257351   36   36   35   35
 -0.3343443447972274   36   36   36   36
 -0.3022142297212765   37   37    1    1
 -0.3036807873505999   37   37    2    2
 -0.304060551557717   37   37    3    3
 -0.3075970730571403   37   37    4    4
 -0.3077013616823369   37   37    5    5
 -0.3083305280814329   37   37    6    6
 -0.3094142088611236   37   37    7    7
 -0.3124020005718402   37   37    8    8
 -0.3140274472371715   37   37    9    9
 -0.3164210330046984   37   37   10   10
 -0.3179866399919498   37   37   11   11
 -0.3185474228691997   37   37   12   12
 -0.3200381052070774   37   37   13   13
 -0.3200855748628956   37   37   14   14
 -0.3214138608158824   37   37   15   15
 -0.3238598845358892   37   37   16   16
 -0.3240155514753351   37   37   17   17
 -0.3241791402264557   37   37   18   18
 -0.3242915432080323   37   37   19   19
 -0.3245469876360805   37   37   20   20
 -0.3248679793797381   37   37   21   21
 -0.3252847013921908   37   37   22   22
 -0.325593360639634   37   37   23   23
 -0.3269745934550359   37   37   24   24
 -0.3273469578493182   37   37   25   25
 -0.3274404415471284   37   37   26   26
 -0.3274486608120761   37   37   27   27
 -0.3288069292593223   37   37   28   28
 -0.3296267700214331   37   37   29   29
 -0.3299361829122058   37   37   30   30
 -0.3306089134931496   37   37   31   31
 -0.3312333062015692   37   37   32   32
 -0.3321657700568403   37   37   33   33
 -0.3338559413133021   37   37   34   34
 -0.3339940917145408   37   37   35   35
 -0.3359114148136309   37   37   36   36
 -0.3374858296781663   37   37   37   37
 -0.3023516529762807   38   38    1    1
 -0.3038188774806327   38   38    2    2
 -0.3041988143746333   38   38    3    3
 -0.3077369440057991   38   38    4    4
 -0.3078412800532576   38   38    5    5
 -0.3084707325477322   38   38    6    6
 -0.3095549061001831   38   38    7    7
 -0.3125440564235055   38   38    8    8
 -0.3141702422140982   38   38    9    9
 -0.3165649163961172   38   38   10   10
 -0.3181312352982524   38   38   11   11
 -0.3186922731754353   38   38   12   12
 -0.320183633358361   38   38   13   13
 -0.320231124599644   38   38   14   14
 -0.3215600145525794   38   38   15   15
 -0.3240071505317336   38   38   16   16
 -0.3241628882562564   38   38   17   17
 -0.3243265513946706   38   38   18   18
 -0.32443900548828   38   38   19   19
 -0.324694566072357   38   38   20   20
 -0.3250157037778056   38   38   21   21
 -0.325432615282644   38   38   22   22
 -0.3257414148840291   38   38   23   23
 -0.3271232757754472   38   38   24   24
 -0.3274958094917603   38   38   25   25