 &FCI NORB=   7,NELEC=12,MS2=0,
  ORBSYM=1,1,1,1,1,1,1,
  ISYM=1,
 &END
 -1.234696145881961    1    1    1    1
 -1.456207512329203    2    2    1    1
 -1.717459251846352    2    2    2    2
 -1.907104108199728    3    3    1    1
 -2.249249208735952    3    3    2    2
 -2.945701330357915    3    3    3    3
 -1.908422699369993    4    4    1    1
 -2.250804362507376    4    4    2    2
 -2.947738018207176    4    4    3    3
 -2.949776114243125    4    4    4    4
 -1.908817363549987    5    5    1    1
 -2.251269831639737    5    5    2    2
 -2.948347614083485    5    5    3    3
 -2.95038613160022    5    5    4    4
 -2.950996275109662    5    5    5    5
 -1.972843759563263    6    6    1    1
 -2.326782919756893    6    6    2    2
 -3.047242393400158    6    6    3    3
 -3.049349287772793    6    6    4    4
 -3.04997989698561    6    6    5    5
 -3.152283671273244    6    6    6    6
 -2.001617668585468    7    7    1    1
 -2.360719028342769    7    7    2    2
 -3.091686397123856    7    7    3    3
 -3.093824020532535    7    7    4    4
 -3.094463827175219    7    7    5    5
 -3.198259701118343    7    7    6    6
 -3.24490629095764    7    7    7    7
 -0.6173480729409804    1    1  0  0
 -0.8587296259231758    2    2  0  0
 -1.472850665178957    3    3  0  0
 -1.474888057121563    4    4  0  0
 -1.475498137554831    5    5  0  0
 -1.576141835636622    6    6  0  0
 -1.62245314547882    7    7  0  0
 -2881.779326309789  0  0  0  0
