 &FCI NORB=   9,NELEC=12,MS2=0,
  ORBSYM=1,1,1,1,1,1,1,1,1,
  ISYM=1,
 &END
 -0.8065353373260914    1    1    1    1
 -0.8168692640296088    2    2    1    1
 -0.8273355966379532    2    2    2    2
 -0.8720197880088548    3    3    1    1
 -0.8831927498820142    3    3    2    2
 -0.9428210711759082    3    3    3    3
 -0.9473245976870569    4    4    1    1
 -0.9594624204257266    4    4    2    2
 -1.024240050769958    4    4    3    3
 -1.112690110216591    4    4    4    4
 -0.9555937562497879    5    5    1    1
 -0.967837529558175    5    5    2    2
 -1.033180601249482    5    5    3    3
 -1.122402737730992    5    5    4    4
 -1.132200146382896    5    5    5    5
 -0.9676239086725634    6    6    1    1
 -0.9800218211830607    6    6    2    2
 -1.046187509291729    6    6    3    3
 -1.136532880300817    6    6    4    4
 -1.146453630402642    6    6    5    5
 -1.160886554256722    6    6    6    6
 -0.9862091444650086    7    7    1    1
 -0.9988451847494028    7    7    2    2
 -1.066281722930964    7    7    3    3
 -1.158362365265936    7    7    4    4
 -1.168473664069821    7    7    5    5
 -1.183183802336029    7    7    6    6
 -1.205909315580512    7    7    7    7
 -1.099863746923672    8    8    1    1
 -1.113956013955947    8    8    2    2
 -1.189164202787099    8    8    3    3
 -1.291856578807015    8    8    4    4
 -1.303133143267122    8    8    5    5
 -1.319538535451974    8    8    6    6
 -1.34488302580488    8    8    7    7
 -1.499872610427091    8    8    8    8
 -1.205582670567376    9    9    1    1
 -1.221029486566756    9    9    2    2
 -1.303466687895738    9    9    3    3
 -1.416029856993076    9    9    4    4
 -1.428390325037109    9    9    5    5
 -1.446372603821403    9    9    6    6
 -1.474153207054564    9    9    7    7
 -1.644040393409786    9    9    8    8
 -1.802065586352268    9    9    9    9
 -0.4032676686630457    1    1  0  0
 -0.4136677983189766    2    2  0  0
 -0.4714105355879541    3    3  0  0
 -0.5563450551082957    4    4  0  0
 -0.566100073191448    5    5  0  0
 -0.5804432771283611    6    6  0  0
 -0.6029546577902559    7    7  0  0
 -0.7499363052135455    8    8  0  0
 -0.9010327931761341    9    9  0  0
 -335.1088950446122  0  0  0  0
