 &FCI NORB=  52,NELEC=74,MS2=0,
  ORBSYM=1,1,1,1,1,1,1,1,1,1,1,1,1,1,1,1,1,1,1,1,1,1,1,1,1,1,1,1,1,1,1,1,1,1,1,1,1,1,1,1,1,1,1,1,1,1,1,1,1,1,1,1,
  ISYM=1,
 &END
 -0.8343000965670245    1    1    1    1
 -0.8190920584838731    2    2    1    1
 -0.8041612401005518    2    2    2    2
 -0.8130610377711842    3    3    1    1
 -0.7982401558400536    3    3    2    2
 -0.7923626688546686    3    3    3    3
 -0.8122141275958881    4    4    1    1
 -0.797408683565642    4    4    2    2
 -0.791537318757193    4    4    3    3
 -0.7907128283705673    4    4    4    4
 -0.809577350650845    5    5    1    1
 -0.7948199711052636    5    5    2    2
 -0.7889676671316816    5    5    3    3
 -0.7881458533757241    5    5    4    4
 -0.7855872118243101    5    5    5    5
 -0.7291793145286587    6    6    1    1
 -0.715887470466278    6    6    2    2
 -0.7106163509167511    6    6    3    3
 -0.7098761503778431    6    6    4    4
 -0.707571604072188    6    6    5    5
 -0.6373036212321349    6    6    6    6
 -0.7185094703213295    7    7    1    1
 -0.7054121214983884    7    7    2    2
 -0.7002181325301481    7    7    3    3
 -0.6994887631054461    7    7    4    4
 -0.6972179384777925    7    7    5    5
 -0.6279781642206328    7    7    6    6
 -0.6187891635944014    7    7    7    7
 -0.7176883917174356    8    8    1    1
 -0.7046060099246179    8    8    2    2
 -0.6994179564010542    8    8    3    3
 -0.6986894204651978    8    8    4    4
 -0.6964211908284135    8    8    5    5
 -0.6272605405070253    8    8    6    6
 -0.6180820406356442    8    8    7    7
 -0.6173757257435245    8    8    8    8
 -0.6790259188723407    9    9    1    1
 -0.6666482959089135    9    9    2    2
 -0.6617397271600634    9    9    3    3
 -0.6610504380633112    9    9    4    4
 -0.6589043998507587    9    9    5    5
 -0.5934694915029881    9    9    6    6
 -0.5847854450826191    9    9    7    7
 -0.5841171799634257    9    9    8    8
 -0.5526502998113766    9    9    9    9
 -0.6741699306985398   10   10    1    1
 -0.6618808251083965   10   10    2    2
 -0.6570073595141273   10   10    3    3
 -0.6563229998016727   10   10    4    4
 -0.6541923087738021   10   10    5    5
 -0.5892253518432885   10   10    6    6
 -0.5806034085408506   10   10    7    7
 -0.5799399224550131   10   10    8    8
 -0.5486980746524486   10   10    9    9
 -0.5447741134494293   10   10   10   10
 -0.659263699791155   11   11    1    1
 -0.6472463124091822   11   11    2    2
 -0.6424806015517524   11   11    3    3
 -0.6418113733713241   11   11    4    4
 -0.6397277929768523   11   11    5    5
 -0.5761972876251759   11   11    6    6
 -0.5677659797573432   11   11    7    7
 -0.5671171636773142   11   11    8    8
 -0.5365660885955619   11   11    9    9
 -0.5327288881172507   11   11   10   10
 -0.5209499886800092   11   11   11   11
 -0.653584176974329   12   12    1    1
 -0.6416703187656692   12   12    2    2
 -0.6369456642618072   12   12    3    3
 -0.6362822014476833   12   12    4    4
 -0.6342165709909904   12   12    5    5
 -0.5712333776706355   12   12    6    6
 -0.5628747050858106   12   12    7    7
 -0.5622314785228923   12   12    8    8
 -0.5319435993793667   12   12    9    9
 -0.5281394561855326   12   12   10   10
 -0.5164620313602439   12   12   11   11
 -0.5120127375616259   12   12   12   12
 -0.6471740753648866   13   13    1    1
 -0.6353770636839862   13   13    2    2
 -0.6306987467698431   13   13    3    3
 -0.6300417909431929   13   13    4    4
 -0.6279964193935871   13   13    5    5
 -0.5656309409492863   13   13    6    6
 -0.5573542470023729   13   13    7    7
 -0.5567173289575789   13   13    8    8
 -0.5267265016547867   13   13    9    9
 -0.5229596680306582   13   13   10   10
 -0.5113967708856652   13   13   11   11
 -0.5069911140451379   13   13   12   12
 -0.5020187406759439   13   13   13   13
 -0.6455185146533901   14   14    1    1
 -0.6337516813584841   14   14    2    2
 -0.6290853322254586   14   14    3    3
 -0.6284300569825914   14   14    4    4
 -0.6263899177760395   14   14    5    5
 -0.5641839788432803   14   14    6    6
 -0.5559284578231591   14   14    7    7
 -0.5552931691027333   14   14    8    8
 -0.5253790624803235   14   14    9    9
 -0.5216218649371077   14   14   10   10
 -0.5100885472807761   14   14   11   11
 -0.505694160719222   14   14   12   12
 -0.5007345073681905   14   14   13   13
 -0.4994535593066941   14   14   14   14
 -0.6287172736654609   15   15    1    1
 -0.6172567017671916   15   15    2    2
 -0.6127118060929563   15   15    3    3
 -0.6120735860344392   15   15    4    4
 -0.6100865465758886   15   15    5    5
 -0.5494996734749605   15   15    6    6
 -0.5414590231285556   15   15    7    7
 -0.5408402693930241   15   15    8    8
 -0.5117047525444051   15   15    9    9
 -0.5080453455059228   15   15   10   10
 -0.496812211415106   15   15   11   11
 -0.4925321998032066   15   15   12   12
 -0.4877016338900654   15   15   13   13
 -0.4864540257198124   15   15   14   14
 -0.4737928376514031   15   15   15   15
 -0.6228799297402363   16   16    1    1
 -0.6115257638571221   16   16    2    2
 -0.6070230653997695   16   16    3    3
 -0.6063907709140616   16   16    4    4
 -0.6044221801815097   16   16    5    5
 -0.5443978276768144   16   16    6    6
 -0.5364318309838407   16   16    7    7
 -0.535818822085473   16   16    8    8
 -0.506953814795615   16   16    9    9
 -0.503328383628865   16   16   10   10
 -0.4921995439002246   16   16   11   11
 -0.4879592701813802   16   16   12   12
 -0.4831735537988141   16   16   13   13
 -0.4819375290831261   16   16   14   14
 -0.4693938941858368   16   16   15   15
 -0.4650357928396008   16   16   16   16
 -0.6223670203275385   17   17    1    1
 -0.6110222040128992   17   17    2    2
 -0.6065232132948893   17   17    3    3
 -0.6058914394709942   17   17    4    4
 -0.6039244697711137   17   17    5    5
 -0.5439495442168157   17   17    6    6
 -0.5359901071101929   17   17    7    7
 -0.535377602992954   17   17    8    8
 -0.5065363645439747   17   17    9    9
 -0.5029139187323176   17   17   10   10
 -0.4917942430277158   17   17   11   11
 -0.487557460955012   17   17   12   12
 -0.4827756853624151   17   17   13   13
 -0.481540678449165   17   17   14   14
 -0.4690073725865757   17   17   15   15
 -0.4646528599114387   17   17   16   16
 -0.4642702423087413   17   17   17   17
 -0.6205010410193259   18   18    1    1
 -0.6091902387057618   18   18    2    2
 -0.6047047368509363   18   18    3    3
 -0.6040748572098052   18   18    4    4
 -0.6021137848737632   18   18    5    5
 -0.5423186759974713   18   18    6    6
 -0.5343831028560988   18   18    7    7
 -0.5337724351472357   18   18    8    8
 -0.5050176684302267   18   18    9    9
 -0.5014060834269174   18   18   10   10
 -0.4903197467073535   18   18   11   11
 -0.4860956673445023   18   18   12   12
 -0.4813282284600228   18   18   13   13
 -0.4800969243415391   18   18   14   14
 -0.4676011958065381   18   18   15   15
 -0.4632597388208638   18   18   16   16
 -0.4628782683813454   18   18   17   17
 -0.4614904678668414   18   18   18   18
 -0.6194898643759236   19   19    1    1
 -0.6081974942943165   19   19    2    2
 -0.6037193020722067   19   19    3    3
 -0.6030904488912089   19   19    4    4
 -0.6011325723443938   19   19    5    5
 -0.5414349063626152   19   19    6    6
 -0.533512265135425   19   19    7    7
 -0.5329025925786781   19   19    8    8
 -0.5041946850070511   19   19    9    9
 -0.500588985490082   19   19   10   10
 -0.4895207152103959   19   19   11   11
 -0.4853035194627351   19   19   12   12
 -0.4805438496592565   19   19   13   13
 -0.4793145520901309   19   19   14   14
 -0.4668391867584151   19   19   15   15
 -0.4625048046680463   19   19   16   16
 -0.4621239558777647   19   19   17   17
 -0.4607384169412005   19   19   18   18
 -0.4599875915676222   19   19   19   19
 -0.6182186467125408   20   20    1    1
 -0.6069494490202409   20   20    2    2
 -0.6024804462254005   20   20    3    3
 -0.6018528834759616   20   20    4    4
 -0.5998990245691308   20   20    5    5
 -0.5403238605552176   20   20    6    6
 -0.5324174769006657   20   20    7    7
 -0.5318090554160793   20   20    8    8
 -0.503160057604373   20   20    9    9
 -0.4995617571251904   20   20   10   10
 -0.4885161993731689   20   20   11   11
 -0.4843076574777059   20   20   12   12
 -0.4795577547046084   20   20   13   13
 -0.4783309797026356   20   20   14   14
 -0.4658812143131929   20   20   15   15
 -0.4615557265460246   20   20   16   16
 -0.4611756592724991   20   20   17   17
 -0.4597929635165433   20   20   18   18
 -0.4590436788662793   20   20   19   19
 -0.4581017031110716   20   20   20   20
 -0.6143022711176518   21   21    1    1
 -0.6031044630721231   21   21    2    2
 -0.5986637711242171   21   21    3    3
 -0.5980401839446663   21   21    4    4
 -0.5960987026090707   21   21    5    5
 -0.5369009434496477   21   21    6    6
 -0.5290446462299729   21   21    7    7
 -0.5284400790565859   21   21    8    8
 -0.4999725708140546   21   21    9    9
 -0.4963970653383141   21   21   10   10
 -0.4854214804883427   21   21   11   11
 -0.481239599436672   21   21   12   12
 -0.476519786993909   21   21   13   13
 -0.4753007835331275   21   21   14   14
 -0.4629298866113259   21   21   15   15
 -0.4586318005325689   21   21   16   16
 -0.4582541409609179   21   21   17   17
 -0.4568802044941594   21   21   18   18
 -0.4561356665142417   21   21   19   19
 -0.4551996581152086   21   21   20   20
 -0.4523159973888229   21   21   21   21
 -0.6135900495552155   22   22    1    1
 -0.6024052242393899   22   22    2    2
 -0.5979696808261813   22   22    3    3
 -0.5973468166331084   22   22    4    4
 -0.5954075862494225   22   22    5    5
 -0.5362784609246823   22   22    6    6
 -0.5284312722897285   22   22    7    7
 -0.5278274060510394   22   22    8    8
 -0.499392903014825   22   22    9    9
 -0.495821542977277   22   22   10   10
 -0.4848586832116135   22   22   11   11
 -0.4806816506294936   22   22   12   12
 -0.4759673103335066   22   22   13   13
 -0.4747497201843639   22   22   14   14
 -0.4623931660705717   22   22   15   15
 -0.4581000631893811   22   22   16   16
 -0.4577228414759358   22   22   17   17
 -0.4563504979500195   22   22   18   18
 -0.455606823186841   22   22   19   19
 -0.454671899995198   22   22   20   20
 -0.451791582582755   22   22   21   21
 -0.4512677757827944   22   22   22   22
 -0.6125489115615839   23   23    1    1
 -0.6013830646281439   23   23    2    2
 -0.5969550474334149   23   23    3    3
 -0.5963332401146781   23   23    4    4
 -0.5943973002120427   23   23    5    5
 -0.5353685050327318   23   23    6    6
 -0.5275346314869601   23   23    7    7
 -0.5269317898869277   23   23    8    8
 -0.4985455344412055   23   23    9    9
 -0.4949802342780422   23   23   10   10
 -0.4840359762641984   23   23   11   11
 -0.4798660312600552   23   23   12   12
 -0.4751596902443705   23   23   13   13
 -0.473944166099013   23   23   14   14
 -0.4616085785539706   23   23   15   15
 -0.457322760198537   23   23   16   16
 -0.4569461785539099   23   23   17   17
 -0.4555761636169042   23   23   18   18
 -0.4548337507191217   23   23   19   19
 -0.4539004139027087   23   23   20   20
 -0.4510249838053289   23   23   21   21
 -0.4505020657993785   23   23   22   22
 -0.4497376550706627   23   23   23   23
 -0.6123213545885041   24   24    1    1
 -0.6011596556770132   24   24    2    2
 -0.5967332834549069   24   24    3    3
 -0.5961117071325668   24   24    4    4
 -0.5941764864159685   24   24    5    5
 -0.5351696199572904   24   24    6    6
 -0.5273386566322666   24   24    7    7
 -0.5267360389830195   24   24    8    8
 -0.4983603288019193   24   24    9    9
 -0.4947963531189696   24   24   10   10
 -0.4838561608085811   24   24   11   11
 -0.4796877649053262   24   24   12   12
 -0.4749831722573157   24   24   13   13
 -0.4737680996693602   24   24   14   14
 -0.4614370946954562   24   24   15   15
 -0.457152868486925   24   24   16   16
 -0.4567764267393373   24   24   17   17
 -0.4554069207518151   24   24   18   18
 -0.4546647836544276   24   24   19   19
 -0.4537317935651032   24   24   20   20
 -0.4508574316667799   24   24   21   21
 -0.450334707920645   24   24   22   22
 -0.4495705811643408   24   24   23   23
 -0.4494035693246256   24   24   24   24
 -0.6104013461334419   25   25    1    1
 -0.5992746460932501   25   25    2    2
 -0.5948621533023084   25   25    3    3
 -0.594242526008506   25   25    4    4
 -0.5923133734130185   25   25    5    5
 -0.5334915301968884   25   25    6    6
 -0.5256851218145964   25   25    7    7
 -0.5250843937466501   25   25    8    8
 -0.4967976590733577   25   25    9    9
 -0.4932448586718082   25   25   10   10
 -0.4823389706716949   25   25   11   11
 -0.4781836452833229   25   25   12   12
 -0.4734938044606312   25   25   13   13
 -0.472282541881301   25   25   14   14
 -0.459990202280786   25   25   15   15
 -0.4557194097872186   25   25   16   16
 -0.4553441484187452   25   25   17   17
 -0.4539789366846499   25   25   18   18
 -0.4532391266488472   25   25   19   19
 -0.452309062063993   25   25   20   20
 -0.4494437130787524   25   25   21   21
 -0.4489226283968193   25   25   22   22
 -0.4481608976533633   25   25   23   23
 -0.4479944094996864   25   25   24   24
 -0.4465896682676285   25   25   25   25
 -0.6092171821446293   26   26    1    1
 -0.5981120676359659   26   26    2    2
 -0.5937081349753336   26   26    3    3
 -0.5930897097436375   26   26    4    4
 -0.5911642996579707   26   26    5    5
 -0.5324565694085523   26   26    6    6
 -0.5246653052715128   26   26    7    7
 -0.5240657426016273   26   26    8    8
 -0.4958338835159682   26   26    9    9
 -0.4922879754620874   26   26   10   10
 -0.4814032446234344   26   26   11   11
 -0.4772559804667715   26   26   12   12
 -0.4725752378229265   26   26   13   13
 -0.4713663250639835   26   26   14   14
 -0.45909783230782   26   26   15   15
 -0.4548353250493797   26   26   16   16
 -0.4544607916789714   26   26   17   17
 -0.4530982284229355   26   26   18   18
 -0.4523598536008794   26   26   19   19
 -0.4514315933190393   26   26   20   20
 -0.4485718030421882   26   26   21   21
 -0.448051729252055   26   26   22   22
 -0.4472914762479934   26   26   23   23
 -0.4471253110773463   26   26   24   24
 -0.4457232950096268   26   26   25   25
 -0.4448586024949909   26   26   26   26
 -0.6080529259691893   27   27    1    1
 -0.5969690341025075   27   27    2    2
 -0.5925735176618155   27   27    3    3
 -0.5919562742835144   27   27    4    4
 -0.5900345437897045   27   27    5    5
 -0.5314390080736845   27   27    6    6
 -0.5236626335813429   27   27    7    7
 -0.5230642167171922   27   27    8    8
 -0.4948863106670808   27   27    9    9
 -0.4913471790887662   27   27   10   10
 -0.4804832497236571   27   27   11   11
 -0.4763439112756695   27   27   12   12
 -0.4716721138547901   27   27   13   13
 -0.4704655114117515   27   27   14   14
 -0.4582204645938729   27   27   15   15
 -0.4539661032816468   27   27   16   16
 -0.4535922856704163   27   27   17   17
 -0.4522323263670129   27   27   18   18
 -0.4514953626303162   27   27   19   19
 -0.4505688763180837   27   27   20   20
 -0.4477145512982672   27   27   21   21
 -0.4471954714051211   27   27   22   22
 -0.446436671297138   27   27   23   23
 -0.4462708236796258   27   27   24   24
 -0.4448714869615911   27   27   25   25
 -0.4440084469341626   27   27   26   26
 -0.4431599160794173   27   27   27   27
 -0.6052130190140853   28   28    1    1
 -0.5941808943871576   28   28    2    2
 -0.5898059071753832   28   28    3    3
 -0.5891915466279808   28   28    4    4
 -0.5872787915630556   28   28    5    5
 -0.5289569258884267   28   28    6    6
 -0.5212168708989822   28   28    7    7
 -0.5206212489366268   28   28    8    8
 -0.4925749476004382   28   28    9    9
 -0.4890523455115068   28   28   10   10
 -0.4782391560528206   28   28   11   11
 -0.4741191503562199   28   28   12   12
 -0.4694691725326515   28   28   13   13
 -0.468268205517918   28   28   14   14
 -0.4560803491059047   28   28   15   15
 -0.4518458577585518   28   28   16   16
 -0.4514737860598705   28   28   17   17
 -0.4501201784369204   28   28   18   18
 -0.4493866566842223   28   28   19   19
 -0.4484644975198573   28   28   20   20
 -0.445623503605163   28   28   21   21
 -0.4451068480710419   28   28   22   22
 -0.4443515919336774   28   28   23   23
 -0.4441865189063076   28   28   24   24
 -0.4427937177806667   28   28   25   25
 -0.4419347085756744   28   28   26   26
 -0.4410901407783756   28   28   27   27
 -0.4390300323484594   28   28   28   28
 -0.6043970628614682   29   29    1    1
 -0.5933798118900684   29   29    2    2
 -0.5890107230935971   29   29    3    3
 -0.5883971908351655   29   29    4    4
 -0.5864870145717773   29   29    5    5
 -0.5282437792035599   29   29    6    6
 -0.5205141594580573   29   29    7    7
 -0.5199193405210659   29   29    8    8
 -0.4919108515772325   29   29    9    9
 -0.4883929987067702   29   29   10   10
 -0.4775943877323384   29   29   11   11
 -0.4734799366816084   29   29   12   12
 -0.468836228019303   29   29   13   13
 -0.467636880164095   29   29   14   14
 -0.4554654555804036   29   29   15   15
 -0.4512366732299816   29   29   16   16
 -0.4508651031632585   29   29   17   17
 -0.4495133204919096   29   29   18   18
 -0.4487807876828865   29   29   19   19
 -0.4478598717856361   29   29   20   20
 -0.4450227081363051   29   29   21   21
 -0.4445067491639708   29   29   22   22
 -0.4437525112728646   29   29   23   23
 -0.4435876607991214   29   29   24   24
 -0.4421967374662777   29   29   25   25
 -0.4413388863887942   29   29   26   26
 -0.4404954572489083   29   29   27   27
 -0.438438126284274   29   29   28   28
 -0.4378470182356297   29   29   29   29
 -0.6017499495399501   30   30    1    1
 -0.590780951469838   30   30    2    2
 -0.5864309982282309   30   30    3    3
 -0.5858201530930734   30   30    4    4
 -0.5839183429408793   30   30    5    5
 -0.5259301988921029   30   30    6    6
 -0.518234433016276   30   30    7    7
 -0.5176422192427257   30   30    8    8
 -0.489756400723278   30   30    9    9
 -0.4862539551996888   30   30   10   10
 -0.475502639536106   30   30   11   11
 -0.4714062087883464   30   30   12   12
 -0.4667828384496639   30   30   13   13
 -0.4655887434487132   30   30   14   14
 -0.4534706267682812   30   30   15   15
 -0.4492603654643391   30   30   16   16
 -0.4488904227848651   30   30   17   17
 -0.4475445605954924   30   30   18   18
 -0.4468152361034456   30   30   19   19
 -0.4458983535956496   30   30   20   20
 -0.4430736160386228   30   30   21   21
 -0.4425599168421096   30   30   22   22
 -0.4418089823310028   30   30   23   23
 -0.4416448538625636   30   30   24   24
 -0.4402600224383506   30   30   25   25
 -0.4394059285416256   30   30   26   26
 -0.4385661934178908   30   30   27   27
 -0.4365178730665403   30   30   28   28
 -0.4359293539285413   30   30   29   29
 -0.4340200885284717   30   30   30   30
 -0.6014893700474226   31   31    1    1
 -0.5905251219502068   31   31    2    2
 -0.5861770523956845   31   31    3    3
 -0.5855664717785639   31   31    4    4
 -0.5836654851789512   31   31    5    5
 -0.5257024520938904   31   31    6    6
 -0.5180100187630321   31   31    7    7
 -0.517418061439465   31   31    8    8
 -0.4895443184880239   31   31    9    9
 -0.4860433896500245   31   31   10   10
 -0.4752967296949826   31   31   11   11
 -0.4712020728498984   31   31   12   12
 -0.4665807045977929   31   31   13   13
 -0.4653871266831661   31   31   14   14
 -0.4532742575855505   31   31   15   15
 -0.4490658194770318   31   31   16   16
 -0.4486960369961182   31   31   17   17
 -0.4473507576137513   31   31   18   18
 -0.4466217489455881   31   31   19   19
 -0.4457052634810802   31   31   20   20
 -0.442881749137582   31   31   21   21
 -0.4423682723914007   31   31   22   22
 -0.4416176630620973   31   31   23   23
 -0.4414536056672213   31   31   24   24
 -0.4400693739251021   31   31   25   25
 -0.4392156498819257   31   31   26   26
 -0.4383762783938714   31   31   27   27
 -0.4363288450393176   31   31   28   28
 -0.4357405807513913   31   31   29   29
 -0.4338321421322952   31   31   30   30
 -0.4336442771237059   31   31   31   31
 -0.598110472249912   32   32    1    1
 -0.5872078163862282   32   32    2    2
 -0.5828841723384111   32   32    3    3
 -0.5822770216896409   32   32    4    4
 -0.5803867139810517   32   32    5    5
 -0.522749291246865   32   32    6    6
 -0.5151000705600424   32   32    7    7
 -0.5145114385875063   32   32    8    8
 -0.4867942778357798   32   32    9    9
 -0.483313015647482   32   32   10   10
 -0.4726267256132749   32   32   11   11
 -0.46855507071583   32   32   12   12
 -0.4639596632400675   32   32   13   13
 -0.4627727903114101   32   32   14   14
 -0.4507279658854937   32   32   15   15
 -0.4465431688967753   32   32   16   16
 -0.4461754636881669   32   32   17   17
 -0.4448377414826488   32   32   18   18
 -0.4441128280585678   32   32   19   19
 -0.4432014909987894   32   32   20   20
 -0.4403938378938627   32   32   21   21
 -0.43988324562999   32   32   22   22
 -0.4391368528876054   32   32   23   23
 -0.4389737170936716   32   32   24   24
 -0.4375972613453067   32   32   25   25
 -0.4367483331413135   32   32   26   26
 -0.4359136768662181   32   32   27   27
 -0.433877745074945   32   32   28   28
 -0.4332927853922299   32   32   29   29
 -0.4313950675262641   32   32   30   30
 -0.4312082578591245   32   32   31   31
 -0.4287859230593694   32   32   32   32
 -0.5948278932839611   33   33    1    1
 -0.5839850739061301   33   33    2    2
 -0.579685159091734   33   33    3    3
 -0.5790813406366661   33   33    4    4
 -0.5772014074067248   33   33    5    5
 -0.51988031317755   33   33    6    6
 -0.5122730733155038   33   33    7    7
 -0.5116876719015708   33   33    8    8
 -0.4841226298187205   33   33    9    9
 -0.480660473662777   33   33   10   10
 -0.4700328326449604   33   33   11   11
 -0.4659835240018332   33   33   12   12
 -0.4614133372647465   33   33   13   13
 -0.4602329781897861   33   33   14   14
 -0.4482542587547427   33   33   15   15
 -0.4440924289722666   33   33   16   16
 -0.4437267418212571   33   33   17   17
 -0.4423963613677695   33   33   18   18
 -0.4416754264487783   33   33   19   19
 -0.4407690910333484   33   33   20   20
 -0.4379768470266627   33   33   21   21
 -0.4374690570200707   33   33   22   22
 -0.4367267606666146   33   33   23   23
 -0.4365645202024747   33   33   24   24
 -0.4351956187854527   33   33   25   25
 -0.4343513497104922   33   33   26   26
 -0.4335212742365357   33   33   27   27
 -0.4314965161450793   33   33   28   28
 -0.4309147668665278   33   33   29   29
 -0.4290274641479957   33   33   30   30
 -0.4288416797387515   33   33   31   31
 -0.426432639314586   33   33   32   32
 -0.4240922709760359   33   33   33   33
 -0.5939344762450084   34   34    1    1
 -0.5831079425183578   34   34    2    2
 -0.5788144860715074   34   34    3    3
 -0.5782115745370836   34   34    4    4
 -0.5763344649211636   34   34    5    5
 -0.5190994655823832   34   34    6    6
 -0.5115036516097226   34   34    7    7
 -0.5109191294544857   34   34    8    8
 -0.4833954893949   34   34    9    9
 -0.4799385333133582   34   34   10   10
 -0.4693268547540551   34   34   11   11
 -0.465283628074095   34   34   12   12
 -0.4607203056464131   34   34   13   13
 -0.4595417194420958   34   34   14   14
 -0.4475809917525117   34   34   15   15
 -0.4434254129372194   34   34   16   16
 -0.443060275039423   34   34   17   17
 -0.4417318927850428   34   34   18   18
 -0.4410120406927783   34   34   19   19
 -0.4401070665711146   34   34   20   20
 -0.4373190164470639   34   34   21   21
 -0.4368119891287205   34   34   22   22
 -0.4360708076863465   34   34   23   23
 -0.4359088109034405   34   34   24   24
 -0.4345419655430771   34   34   25   25
 -0.433698964539748   34   34   26   26
 -0.4328701358189791   34   34   27   27
 -0.4308484188649661   34   34   28   28
 -0.4302675433596921   34   34   29   29
 -0.428383075323974   34   34   30   30
 -0.4281975699583972   34   34   31   31
 -0.4257921478543992   34   34   32   32
 -0.4234552946922131   34   34   33   33
 -0.4228192751312874   34   34   34   34
 -0.5938375173473651   35   35    1    1
 -0.5830127510358376   35   35    2    2
 -0.5787199954892057   35   35    3    3
 -0.5781171823791706   35   35    4    4
 -0.5762403791985332   35   35    5    5
 -0.5190147233861256   35   35    6    6
 -0.5114201494185143   35   35    7    7
 -0.510835722685628   35   35    8    8
 -0.4833165758183153   35   35    9    9
 -0.4798601840795828   35   35   10   10
 -0.4692502378606243   35   35   11   11
 -0.4652076712312548   35   35   12   12
 -0.4606450937590013   35   35   13   13
 -0.4594666999570847   35   35   14   14
 -0.4475079248380589   35   35   15   15
 -0.4433530244146719   35   35   16   16
 -0.4429879461250806   35   35   17   17
 -0.441659780727078   35   35   18   18
 -0.4409400461495699   35   35   19   19
 -0.4400352197635518   35   35   20   20
 -0.4372476247844327   35   35   21   21
 -0.4367406802375259   35   35   22   22
 -0.4359996197918922   35   35   23   23
 -0.4358376494547141   35   35   24   24
 -0.4344710272297716   35   35   25   25
 -0.4336281638450709   35   35   26   26
 -0.4327994704293269   35   35   27   27
 -0.4307780835175241   35   35   28   28
 -0.4301973028392906   35   35   29   29
 -0.428313142440106   35   35   30   30
 -0.4281276673579973   35   35   31   31
 -0.42572263793549   35   35   32   32
 -0.4233861662610196   35   35   33   33
 -0.4227502505293174   35   35   34   34
 -0.4226812371955085   35   35   35   35
 -0.5859773906771494   36   36    1    1
 -0.5752959026730691   36   36    2    2
 -0.5710599667132351   36   36    3    3
 -0.570465132532225   36   36    4    4
 -0.5686131710133284   36   36    5    5
 -0.5121449629712822   36   36    6    6
 -0.5046509119777974   36   36    7    7
 -0.5040742208089599   36   36    8    8
 -0.4769193216927821   36   36    9    9
 -0.4735086792980952   36   36   10   10
 -0.4630391679940908   36   36   11   11
 -0.4590501094117061   36   36   12   12
 -0.4545479229316466   36   36   13   13
 -0.4533851265352153   36   36   14   14
 -0.441584639642363   36   36   15   15
 -0.4374847341337059   36   36   16   16
 -0.4371244880777086   36   36   17   17
 -0.435813902485566   36   36   18   18
 -0.4351036944279945   36   36   19   19
 -0.434210844466168   36   36   20   20
 -0.4314601465321178   36   36   21   21
 -0.4309599119828738   36   36   22   22
 -0.4302286603297175   36   36   23   23
 -0.4300688338573674   36   36   24   24
 -0.4287203004588877   36   36   25   25
 -0.427888593346359   36   36   26   26
 -0.4270708686468517   36   36   27   27
 -0.4250762371297691   36   36   28   28
 -0.4245031437558321   36   36   29   29
 -0.4226439223996887   36   36   30   30
 -0.4224609022949045   36   36   31   31
 -0.4200877062196586   36   36   32   32
 -0.4177821604513261   36   36   33   33
 -0.4171546618001498   36   36   34   34
 -0.4170865619376689   36   36   35   35
 -0.4115659386804537   36   36   36   36
 -0.5837657676287548   37   37    1    1
 -0.573124594192159   37   37    2    2
 -0.568904645698308   37   37    3    3
 -0.5683120565680554   37   37    4    4
 -0.5664670848082264   37   37    5    5
 -0.5102120016962445   37   37    6    6
 -0.5027462350976302   37   37    7    7
 -0.5021717205033518   37   37    8    8
 -0.4751193106669955   37   37    9    9
 -0.4717215408770369   37   37   10   10
 -0.4612915440882232   37   37   11   11
 -0.4573175411957723   37   37   12   12
 -0.4528323470767592   37   37   13   13
 -0.4516739393604235   37   37   14   14
 -0.4399179904125666   37   37   15   15
 -0.435833558957454   37   37   16   16
 -0.4354746725588313   37   37   17   17
 -0.4341690334396218   37   37   18   18
 -0.4334615058822442   37   37   19   19
 -0.4325720257561583   37   37   20   20
 -0.4298317096338418   37   37   21   21
 -0.4293333630930367   37   37   22   22
 -0.4286048713637889   37   37   23   23
 -0.4284456481159243   37   37   24   24
 -0.4271022044147487   37   37   25   25
 -0.4262736363697827   37   37   26   26
 -0.4254589979647664   37   37   27   27
 -0.4234718946784763   37   37   28   28
 -0.4229009643001341   37   37   29   29
 -0.4210487601034729   37   37   30   30
 -0.4208664307616574   37   37   31   31
 -0.4185021917131192   37   37   32   32
 -0.4162053476425681   37   37   33   33
 -0.4155802173259076   37   37   34   34
 -0.4155123744890865   37   37   35   35
 -0.4100125874242422   37   37   36   36
 -0.4084650988983939   37   37   37   37
 -0.5822940650926812   38   38    1    1
 -0.5716797185835998   38   38    2    2
 -0.5674704087897976   38   38    3    3
 -0.5668793136062169   38   38    4    4
 -0.5650389931119614   38   38    5    5
 -0.5089257318625721   38   38    6    6
 -0.501478786832892   38   38    7    7
 -0.5009057206184816   38   38    8    8
 -0.4739215112528806   38   38    9    9
 -0.4705323074095638   38   38   10   10
 -0.4601286051614316   38   38   11   11
 -0.4561646209279352   38   38   12   12
 -0.4516907342063849   38   38   13   13
 -0.4505352468935201   38   38   14   14
 -0.4388089352776889   38   38   15   15
 -0.4347348008774299   38   38   16   16
 -0.4343768192492686   38   38   17   17
 -0.4330744717112199   38   38   18   18
 -0.4323687278660061   38   38   19   19
 -0.4314814901635599   38   38   20   20
 -0.428748082514488   38   38   21   21
 -0.4282509923300996   38   38   22   22
 -0.4275243371647355   38   38   23   23
 -0.4273655153265984   38   38   24   24
 -0.4260254585138149   38   38   25   25
 -0.4251989793301024   38   38   26   26