 &FCI NORB=  70,NELEC=90,MS2=0,
  ORBSYM=1,1,1,1,1,1,1,1,1,1,1,1,1,1,1,1,1,1,1,1,1,1,1,1,1,1,1,1,1,1,1,1,1,1,1,1,1,1,1,1,1,1,1,1,1,1,1,1,1,1,1,1,1,1,1,1,1,1,1,1,1,1,1,1,1,1,1,1,1,1,
  ISYM=1,
 &END
 -0.2709313669396854    1    1    1    1
 -0.2711603709593493    2    2    1    1
 -0.2713895685440538    2    2    2    2
 -0.2714545883680484    3    3    1    1
 -0.2716840346392376    3    3    2    2
 -0.2719788202392633    3    3    3    3
 -0.2730054551071739    4    4    1    1
 -0.273236212244363    4    4    2    2
 -0.2735326820052092    4    4    3    3
 -0.2750954212506057    4    4    4    4
 -0.275773101789453    5    5    1    1
 -0.2760061982726632    5    5    2    2
 -0.2763056735542221    5    5    3    3
 -0.2778842553771454    5    5    4    4
 -0.2807013618600551    5    5    5    5
 -0.2795048279882003    6    6    1    1
 -0.2797410787030871    6    6    2    2
 -0.2800446064456975    6    6    3    3
 -0.2816445494351278    6    6    4    4
 -0.2844997766411926    6    6    5    5
 -0.2883495910833576    6    6    6    6
 -0.2800143059723826    7    7    1    1
 -0.2802509873221849    7    7    2    2
 -0.2805550683314547    7    7    3    3
 -0.2821579276774106    7    7    4    4
 -0.2850183593567284    7    7    5    5
 -0.2888751911936038    7    7    6    6
 -0.2894017493613067    7    7    7    7
 -0.2811142208627674    8    8    1    1
 -0.281351831912715    8    8    2    2
 -0.2816571073724926    8    8    3    3
 -0.2832662628569823    8    8    4    4
 -0.2861379305029271    8    8    5    5
 -0.290009912232778    8    8    6    6
 -0.290538538756122    8    8    7    7
 -0.2916797935355833    8    8    8    8
 -0.2820870381280488    9    9    1    1
 -0.2823254714492109    9    9    2    2
 -0.2826318033380693    9    9    3    3
 -0.2842465274282062    9    9    4    4
 -0.2871281326997096    9    9    5    5
 -0.2910135137185261    9    9    6    6
 -0.2915439695943916    9    9    7    7
 -0.2926891737733182    9    9    8    8
 -0.2937020470485788    9    9    9    9
 -0.2822955118115553   10   10    1    1
 -0.2825341213445458   10   10    2    2
 -0.2828406796250089   10   10    3    3
 -0.2844565970612888   10   10    4    4
 -0.2873403319551575   10   10    5    5
 -0.2912285844270481   10   10    6    6
 -0.2917594323311724   10   10    7    7
 -0.2929054828621155   10   10    8    8
 -0.2939191046915246   10   10    9    9
 -0.2941363227488115   10   10   10   10
 -0.2827258504537463   11   11    1    1
 -0.2829648237293332   11   11    2    2
 -0.283271849335236   11   11    3    3
 -0.2848902301182087   11   11    4    4
 -0.287778361052775   11   11    5    5
 -0.2916725408781631   11   11    6    6
 -0.2922041980206802   11   11    7    7
 -0.2933519956209486   11   11    8    8
 -0.2943671626419159   11   11    9    9
 -0.2945847118320757   11   11   10   10
 -0.2950337844513551   11   11   11   11
 -0.2827336980620067   12   12    1    1
 -0.2829726779707636   12   12    2    2
 -0.2832797120987619   12   12    3    3
 -0.2848981378030546   12   12    4    4
 -0.2877863489033367   12   12    5    5
 -0.2916806368192927   12   12    6    6
 -0.2922123087189924   12   12    7    7
 -0.2933601381786253   12   12    8    8
 -0.2943753333775363   12   12    9    9
 -0.2945928886061989   12   12   10   10
 -0.2950419736903661   12   12   11   11
 -0.2950501631566853   12   12   12   12
 -0.2830263647926711   13   13    1    1
 -0.2832655920772064   13   13    2    2
 -0.2835729440260907   13   13    3    3
 -0.2851930450148045   13   13    4    4
 -0.2880842457951495   13   13    5    5
 -0.2919825648135898   13   13    6    6
 -0.2925147870639471   13   13    7    7
 -0.2936638046787154   13   13    8    8
 -0.2946800507387791   13   13    9    9
 -0.2948978311658454   13   13   10   10
 -0.2953473811124053   13   13   11   11
 -0.2953555790559042   13   13   12   12
 -0.2956613111009286   13   13   13   13
 -0.2834791528396692   14   14    1    1
 -0.2837187628421008   14   14    2    2
 -0.2840266064953137   14   14    3    3
 -0.2856492993357201   14   14    4    4
 -0.288545125484291   14   14    5    5
 -0.2924496810674987   14   14    6    6
 -0.2929827547716543   14   14    7    7
 -0.2941336105948247   14   14    8    8
 -0.2951514824541991   14   14    9    9
 -0.2953696112882922   14   14   10   10
 -0.2958198804287777   14   14   11   11
 -0.295828091487418   14   14   12   12
 -0.2961343126452347   14   14   13   13
 -0.296608070901537   14   14   14   14
 -0.2844549776315236   15   15    1    1
 -0.2846954124472735   15   15    2    2
 -0.2850043157955851   15   15    3    3
 -0.286632594457338   15   15    4    4
 -0.2895383889542701   15   15    5    5
 -0.2934563852511992   15   15    6    6
 -0.2939912939634363   15   15    7    7
 -0.295146111395892   15   15    8    8
 -0.2961674870917404   15   15    9    9
 -0.2963863667941848   15   15   10   10
 -0.2968381859032866   15   15   11   11
 -0.2968464252269846   15   15   12   12
 -0.2971537004947581   15   15   13   13
 -0.2976290895766334   15   15   14   14
 -0.2986536229205374   15   15   15   15
 -0.2845705352858335   16   16    1    1
 -0.2848110677763844   16   16    2    2
 -0.2851200966143134   16   16    3    3
 -0.2867490367517919   16   16    4    4
 -0.2896560117054655   16   16    5    5
 -0.2935755996583586   16   16    6    6
 -0.2941107256731599   16   16    7    7
 -0.295266012241346   16   16    8    8
 -0.2962878028632419   16   16    9    9
 -0.2965067714838877   16   16   10   10
 -0.2969587741410393   16   16   11   11
 -0.2969670168118995   16   16   12   12
 -0.2972744169078952   16   16   13   13
 -0.2977499991129411   16   16   14   14
 -0.2987749486656631   16   16   15   15
 -0.2988963236984428   16   16   16   16
 -0.2847244416455876   17   17    1    1
 -0.2849651042250811   17   17    2    2
 -0.2852743001973323   17   17    3    3
 -0.2869041213263954   17   17    4    4
 -0.289812668480552   17   17    5    5
 -0.2937343762928078   17   17    6    6
 -0.2942697917237177   17   17    7    7
 -0.2954257031139711   17   17    8    8
 -0.2964480463583474   17   17    9    9
 -0.2966671334053906   17   17   10   10
 -0.2971193805224386   17   17   11   11
 -0.2971276276512426   17   17   12   12
 -0.2974351940006761   17   17   13   13
 -0.2979110334183174   17   17   14   14
 -0.2989365373019873   17   17   15   15
 -0.2990579779789119   17   17   16   16
 -0.2992197196880454   17   17   17   17
 -0.2856122239727698   18   18    1    1
 -0.2858536369479219   18   18    2    2
 -0.2861637970057226   18   18    3    3
 -0.2877986999829982   18   18    4    4
 -0.2907163161048427   18   18    5    5
 -0.2946502519607044   18   18    6    6
 -0.2951873368385873   18   18    7    7
 -0.2963468524073164   18   18    8    8
 -0.2973723833592861   18   18    9    9
 -0.2975921535286049   18   18   10   10
 -0.2980458107704589   18   18   11   11
 -0.298054083614144   18   18   12   12
 -0.2983626089678973   18   18   13   13
 -0.2988399320720921   18   18   14   14
 -0.2998686335183567   18   18   15   15
 -0.2999904528522246   18   18   16   16
 -0.3001526988785503   18   18   17   17
 -0.3010885871359136   18   18   18   18
 -0.2871456692612448   19   19    1    1
 -0.2873883783769617   19   19    2    2
 -0.2877002036767913   19   19    3    3
 -0.2893438844095592   19   19    4    4
 -0.2922771651434898   19   19    5    5
 -0.2962322222080989   19   19    6    6
 -0.296772190682013   19   19    7    7
 -0.2979379316624596   19   19    8    8
 -0.2989689686659022   19   19    9    9
 -0.2991899187760723   19   19   10   10
 -0.2996460116929489   19   19   11   11
 -0.2996543289533365   19   19   12   12
 -0.2999645107724312   19   19   13   13
 -0.300444396613105   19   19   14   14
 -0.3014786211331515   19   19   15   15
 -0.3016010945121473   19   19   16   16
 -0.3017642116335585   19   19   17   17
 -0.3027051246528834   19   19   18   18
 -0.3043303413216225   19   19   19   19
 -0.2874838714569199   20   20    1    1
 -0.2877268664371462   20   20    2    2
 -0.2880390590070144   20   20    3    3
 -0.289684675678549   20   20    4    4
 -0.2926214112512286   20   20    5    5
 -0.2965811266099597   20   20    6    6
 -0.297121731062553   20   20    7    7
 -0.298288845060953   20   20    8    8
 -0.2993210964270545   20   20    9    9
 -0.2995423067738235   20   20   10   10
 -0.2999989368801564   20   20   11   11
 -0.300007263936672   20   20   12   12
 -0.3003178110901022   20   20   13   13
 -0.3007982621437058   20   20   14   14
 -0.3018337047806905   20   20   15   15
 -0.3019563224096965   20   20   16   16
 -0.3021196316516044   20   20   17   17
 -0.3030616528849235   20   20   18   18
 -0.3046887837453244   20   20   19   19
 -0.3050476483450426   20   20   20   20
 -0.2875880880653888   21   21    1    1
 -0.2878311711344271   21   21    2    2
 -0.2881434768781255   21   21    3    3
 -0.289789690106912   21   21    4    4
 -0.2927274902840851   21   21    5    5
 -0.2966886410906661   21   21    6    6
 -0.2972294415193408   21   21    7    7
 -0.2983969786116069   21   21    8    8
 -0.2994296041821321   21   21    9    9
 -0.2996508947205028   21   21   10   10
 -0.3001076903611342   21   21   11   11
 -0.3001160204363151   21   21   12   12
 -0.3004266801670907   21   21   13   13
 -0.3009073053903932   21   21   14   14
 -0.3019431233886786   21   21   15   15
 -0.3020657854681554   21   21   16   16
 -0.3022291539117682   21   21   17   17
 -0.3031715166399251   21   21   18   18
 -0.3047992373562332   21   21   19   19
 -0.3051582320489938   21   21   20   20
 -0.3052688558409629   21   21   21   21
 -0.287909019904375   22   22    1    1
 -0.2881523742401994   22   22    2    2
 -0.2884650284992251   22   22    3    3
 -0.2901130788077128   22   22    4    4
 -0.2930541574016652   22   22    5    5
 -0.2970197286257308   22   22    6    6
 -0.2975611325567177   22   22    7    7
 -0.2987299725535256   22   22    8    8
 -0.2997637504750594   22   22    9    9
 -0.2999852879609998   22   22   10   10
 -0.30044259335941   22   22   11   11
 -0.3004509327304778   22   22   12   12
 -0.3007619391397247   22   22   13   13
 -0.3012431007132557   22   22   14   14
 -0.3022800746251162   22   22   15   15
 -0.3024028735884501   22   22   16   16
 -0.3025664243418915   22   22   17   17
 -0.3035098386928933   22   22   18   18
 -0.3051393758523175   22   22   19   19
 -0.3054987711625992   22   22   20   20
 -0.3056095184043858   22   22   21   21
 -0.3059505611277232   22   22   22   22
 -0.2926763960774469   23   23    1    1
 -0.2929237800253432   23   23    2    2
 -0.2932416114075636   23   23    3    3
 -0.2949169511555253   23   23    4    4
 -0.2979067299535094   23   23    5    5
 -0.3019379655661813   23   23    6    6
 -0.3024883343993496   23   23    7    7
 -0.3036765287739841   23   23    8    8
 -0.3047274246317083   23   23    9    9
 -0.3049526304727849   23   23   10   10
 -0.3054175082176986   23   23   11   11
 -0.3054259856772464   23   23   12   12
 -0.3057421419235689   23   23   13   13
 -0.3062312708689517   23   23   14   14
 -0.3072854156381933   23   23   15   15
 -0.3074102479829477   23   23   16   16
 -0.3075765069112329   23   23   17   17
 -0.3085355429023619   23   23   18   18
 -0.3101920629490522   23   23   19   19
 -0.3105574093498538   23   23   20   20
 -0.3106699904131786   23   23   21   21
 -0.3110166803335151   23   23   22   22
 -0.3161666874841851   23   23   23   23
 -0.2930538255235307   24   24    1    1
 -0.2933015284926657   24   24    2    2
 -0.2936197697436836   24   24    3    3
 -0.2952972699752427   24   24    4    4
 -0.2982909043303226   24   24    5    5
 -0.302327338541326   24   24    6    6
 -0.3028784171187942   24   24    7    7
 -0.3040681437643965   24   24    8    8
 -0.3051203948357518   24   24    9    9
 -0.3053458910976378   24   24   10   10
 -0.3058113683393067   24   24   11   11
 -0.3058198567312116   24   24   12   12
 -0.3061364206861109   24   24   13   13
 -0.3066261804020969   24   24   14   14
 -0.307681684574699   24   24   15   15
 -0.3078066779006714   24   24   16   16
 -0.3079731512330428   24   24   17   17
 -0.3089334239772129   24   24   18   18
 -0.3105920802380018   24   24   19   19
 -0.3109578977819893   24   24   20   20
 -0.3110706240275321   24   24   21   21
 -0.311417761032042   24   24   22   22
 -0.3165744095257525   24   24   23   23
 -0.3169826573572584   24   24   24   24
 -0.2936929552800802   25   25    1    1
 -0.2939411984719476   25   25    2    2
 -0.2942601337847233   25   25    3    3
 -0.2959412925261575   25   25    4    4
 -0.2989414557869534   25   25    5    5
 -0.3029866931767243   25   25    6    6
 -0.3035389736177629   25   25    7    7
 -0.3047312949733985   25   25    8    8
 -0.3057858409302406   25   25    9    9
 -0.3060118289835944   25   25   10   10
 -0.3064783213983484   25   25   11   11
 -0.3064868283028382   25   25   12   12
 -0.3068040826614306   25   25   13   13
 -0.3072949105088683   25   25   14   14
 -0.3083527166617419   25   25   15   15
 -0.3084779825893562   25   25   16   16
 -0.3086448189883423   25   25   17   17
 -0.3096071860197449   25   25   18   18
 -0.3112694596930357   25   25   19   19
 -0.3116360750593256   25   25   20   20
 -0.3117490471528718   25   25   21   21
 -0.312096941238743   25   25   22   22
 -0.3172648360196859   25   25   23   23
 -0.3176739742109635   25   25   24   24
 -0.3183667987780437   25   25   25   25
 -0.2942942295829128   26   26    1    1
 -0.2945429810002907   26   26    2    2
 -0.2948625692657655   26   26    3    3
 -0.2965471698246899   26   26    4    4
 -0.2995534752861773   26   26    5    5
 -0.3036069944452164   26   26    6    6
 -0.3041604055638256   26   26    7    7
 -0.3053551679456381   26   26    8    8
 -0.3064118728626242   26   26    9    9
 -0.3066383235787922   26   26   10   10
 -0.3071057710382499   26   26   11   11
 -0.3071142953588302   26   26   12   12
 -0.3074321992287229   26   26   13   13
 -0.3079240319425235   26   26   14   14
 -0.308984003730104   26   26   15   15
 -0.3091095261132509   26   26   16   16
 -0.3092767040745309   26   26   17   17
 -0.3102410413491942   26   26   18   18
 -0.3119067181767863   26   26   19   19
 -0.3122740841106156   26   26   20   20
 -0.3123872874906655   26   26   21   21
 -0.312735893816208   26   26   22   22
 -0.3179143687703409   26   26   23   23
 -0.3183243445856618   26   26   24   24
 -0.3190185875647301   26   26   25   25
 -0.3196717107513102   26   26   26   26
 -0.2947487921938562   27   27    1    1
 -0.294997927829076   27   27    2    2
 -0.2953180097259638   27   27    3    3
 -0.2970052122945488   27   27    4    4
 -0.3000161612519749   27   27    5    5
 -0.3040759414180854   27   27    6    6
 -0.3046302073275048   27   27    7    7
 -0.3058268151220138   27   27    8    8
 -0.3068851522101327   27   27    9    9
 -0.307111952698802   27   27   10   10
 -0.3075801221708453   27   27   11   11
 -0.3075886596579678   27   27   12   12
 -0.3079070545575806   27   27   13   13
 -0.308399646949078   27   27   14   14
 -0.3094612559537523   27   27   15   15
 -0.309586972216957   27   27   16   16
 -0.3097544083988982   27   27   17   17
 -0.3107202351749697   27   27   18   18
 -0.3123884847829008   27   27   19   19
 -0.3127564181448387   27   27   20   20
 -0.3128697963771922   27   27   21   21
 -0.3132189411550237   27   27   22   22
 -0.3184054147066798   27   27   23   23
 -0.3188160237647161   27   27   24   24
 -0.3195113390614496   27   27   25   25
 -0.3201654710526583   27   27   26   26
 -0.3206599940090271   27   27   27   27
 -0.2949227311368167   28   28    1    1
 -0.2951720137934669   28   28    2    2
 -0.2954922845790229   28   28    3    3
 -0.2971804828098094   28   28    4    4
 -0.3001932086066759   28   28    5    5
 -0.3042553845548538   28   28    6    6
 -0.3048099775510298   28   28    7    7
 -0.3060072914949799   28   28    8    8
 -0.3070662531353931   28   28    9    9
 -0.3072931874649408   28   28   10   10
 -0.3077616332159894   28   28   11   11
 -0.3077701757413056   28   28   12   12
 -0.3080887585340453   28   28   13   13
 -0.3085816416171492   28   28   14   14
 -0.309643877104961   28   28   15   15
 -0.3097696675566086   28   28   16   16
 -0.3099372025470039   28   28   17   17
 -0.3109035992826239   28   28   18   18
 -0.3125728333681205   28   28   19   19
 -0.3129409838571231   28   28   20   20
 -0.313054428996926   28   28   21   21
 -0.313403779814189   28   28   22   22
 -0.3185933140390392   28   28   23   23
 -0.3190041654081804   28   28   24   24
 -0.3196998910285895   28   28   25   25
 -0.3203544090401318   28   28   26   26
 -0.3208492238273836   28   28   27   27
 -0.321038565315187   28   28   28   28
 -0.2951012677323463   29   29    1    1
 -0.2953507012965805   29   29    2    2
 -0.2956711659636168   29   29    3    3
 -0.2973603861745117   29   29    4    4
 -0.3003749357772441   29   29    5    5
 -0.3044395708341567   29   29    6    6
 -0.3049944995628314   29   29    7    7
 -0.3061925383215645   29   29    8    8
 -0.3072521410227915   29   29    9    9
 -0.3074792127309755   29   29   10   10
 -0.3079479420637923   29   29   11   11
 -0.3079564897604745   29   29   12   12
 -0.3082752654128388   29   29   13   13
 -0.3087684468712741   29   29   14   14
 -0.3098313254017803   29   29   15   15
 -0.3099571920028616   29   29   16   16
 -0.310124828413472   29   29   17   17
 -0.3110918101741338   29   29   18   18
 -0.3127620547594641   29   29   19   19
 -0.3131304281147567   29   29   20   20
 -0.3132439419305446   29   29   21   21
 -0.3135935042333901   29   29   22   22
 -0.3187861800328802   29   29   23   23
 -0.3191972801180307   29   29   24   24
 -0.3198934269080227   29   29   25   25
 -0.3205483411434065   29   29   26   26
 -0.3210434554753805   29   29   27   27
 -0.3212329115843407   29   29   28   28
 -0.3214273755043825   29   29   29   29
 -0.2952944354176105   30   30    1    1
 -0.2955440322563186   30   30    2    2
 -0.2958647066934397   30   30    3    3
 -0.2975550326358027   30   30    4    4
 -0.3005715555054525   30   30    5    5
 -0.3046388511952774   30   30    6    6
 -0.3051941431697586   30   30    7    7
 -0.3063929661419098   30   30    8    8
 -0.3074532624389411   30   30    9    9
 -0.3076804827839527   30   30   10   10
 -0.3081495189380886   30   30   11   11
 -0.3081580722299307   30   30   12   12
 -0.3084770565467828   30   30   13   13
 -0.3089705608324343   30   30   14   14
 -0.3100341351030402   30   30   15   15
 -0.3101600840940081   30   30   16   16
 -0.3103278302362292   30   30   17   17
 -0.3112954449647864   30   30   18   18
 -0.3129667828605009   30   30   19   19
 -0.3133353973459957   30   30   20   20
 -0.3134489854657715   30   30   21   21
 -0.3137987765854614   30   30   22   22
 -0.3189948514119101   30   30   23   23
 -0.3194062205953687   30   30   24   24
 -0.3201028230698282   30   30   25   25
 -0.3207581659996322   30   30   26   26
 -0.3212536044240447   30   30   27   27
 -0.3214431845473756   30   30   28   28
 -0.3216377757598062   30   30   29   29
 -0.3218483137392412   30   30   30   30
 -0.2953859771145694   31   31    1    1
 -0.2956356513286542   31   31    2    2
 -0.295956425175309   31   31    3    3
 -0.2976472751211297   31   31    4    4
 -0.3006647331171797   31   31    5    5
 -0.3047332896744807   31   31    6    6
 -0.3052887537902675   31   31    7    7
 -0.3064879483992532   31   31    8    8
 -0.3075485733896517   31   31    9    9
 -0.3077758641732949   31   31   10   10
 -0.3082450457293089   31   31   11   11
 -0.3082536016726837   31   31   12   12
 -0.30857268487513   31   31   13   13
 -0.3090663421478151   31   31   14   14
 -0.3101302461279648   31   31   15   15
 -0.3102562341632999   31   31   16   16
 -0.3104240323070647   31   31   17   17
 -0.3113919469975706   31   31   18   18
 -0.3130638030104211   31   31   19   19
 -0.3134325317669331   31   31   20   20
 -0.3135461550991884   31   31   21   21
 -0.3138960546546253   31   31   22   22
 -0.3190937402716955   31   31   23   23
 -0.3195052369801887   31   31   24   24
 -0.3202020554024107   31   31   25   25
 -0.3208576014894596   31   31   26   26
 -0.3213531935004915   31   31   27   27
 -0.3215428323939317   31   31   28   28
 -0.3217374839299162   31   31   29   29
 -0.3219480871764256   31   31   30   30
 -0.3220478915435182   31   31   31   31
 -0.2963759637545819   32   32    1    1
 -0.2966264747522497   32   32    2    2
 -0.2969483236730355   32   32    3    3
 -0.2986448405055276   32   32    4    4
 -0.3016724115175442   32   32    5    5
 -0.3057546038495533   32   32    6    6
 -0.3063119296043353   32   32    7    7
 -0.307515143316236   32   32    8    8
 -0.3085793229932206   32   32    9    9
 -0.3088073755423389   32   32   10   10
 -0.3092781295611919   32   32   11   11
 -0.3092867141798265   32   32   12   12
 -0.3096068667902066   32   32   13   13
 -0.3101021785561399   32   32   14   14
 -0.3111696482124157   32   32   15   15
 -0.3112960584968806   32   32   16   16
 -0.3114644190164297   32   32   17   17
 -0.3124355776747827   32   32   18   18
 -0.3141130369161037   32   32   19   19
 -0.3144830014677145   32   32   20   20
 -0.3145970056087746   32   32   21   21
 -0.3149480778532085   32   32   22   22
 -0.320163183523086   32   32   23   23
 -0.3205760593635469   32   32   24   24
 -0.3212752131739794   32   32   25   25
 -0.3219329563249324   32   32   26   26
 -0.3224302093134914   32   32   27   27
 -0.3226204837820281   32   32   28   28
 -0.3228157876929899   32   32   29   29
 -0.3230270967766634   32   32   30   30
 -0.3231272356382739   32   32   31   31
 -0.324210197156728   32   32   32   32
 -0.296394030086049   33   33    1    1
 -0.2966445563542355   33   33    2    2
 -0.29696642489412   33   33    3    3
 -0.2986630451420006   33   33    4    4
 -0.3016908007071124   33   33    5    5
 -0.3057732418792732   33   33    6    6
 -0.306330601607228   33   33    7    7
 -0.3075338886640028   33   33    8    8
 -0.3085981332106972   33   33    9    9
 -0.308826199661324   33   33   10   10
 -0.309296982376155   33   33   11   11
 -0.3093055675180863   33   33   12   12
 -0.3096257396441623   33   33   13   13
 -0.310121081603052   33   33   14   14
 -0.3111886163295864   33   33   15   15
 -0.3113150343197036   33   33   16   16
 -0.3114834051020854   33   33   17   17
 -0.3124546229598216   33   33   18   18
 -0.3141321844548284   33   33   19   19
 -0.3145021715585454   33   33   20   20
 -0.3146161826490105   33   33   21   21
 -0.3149672762939232   33   33   22   22
 -0.320182699863493   33   33   23   23
 -0.320595600871824   33   33   24   24
 -0.32129479730091   33   33   25   25
 -0.3219525805462271   33   33   26   26
 -0.3224498638460745   33   33   27   27
 -0.3226401499132631   33   33   28   28
 -0.3228354657294588   33   33   29   29
 -0.3230467876940012   33   33   30   30
 -0.3231469326598242   33   33   31   31
 -0.324229960192882   33   33   32   32
 -0.3242497244337408   33   33   33   33
 -0.2965097021700248   34   34    1    1
 -0.2967603262097337   34   34    2    2
 -0.2970823203635004   34   34    3    3
 -0.2987796027421254   34   34    4    4
 -0.3018085399329126   34   34    5    5
 -0.3058925743371569   34   34    6    6
 -0.3064501515828574   34   34    7    7
 -0.3076539082399188   34   34    8    8
 -0.3087185681235367   34   34    9    9
 -0.308946723580415   34   34   10   10
 -0.3094176900250523   34   34   11   11
 -0.3094262785174602   34   34   12   12
 -0.3097465755953682   34   34   13   13
 -0.3102421108686665   34   34   14   14
 -0.311310062216165   34   34   15   15
 -0.3114365295427427   34   34   16   16
 -0.3116049660342728   34   34   17   17
 -0.3125765629239132   34   34   18   18
 -0.3142547791117087   34   34   19   19
 -0.3146249106082777   34   34   20   20
 -0.3147389661932302   34   34   21   21
 -0.3150901968575477   34   34   22   22
 -0.320307655822071   34   34   23   23
 -0.32072071797103   34   34   24   24
 -0.3214201872716986   34   34   25   25
 -0.3220782272265004   34   34   26   26
 -0.3225757045983932   34   34   27   27
 -0.3227660649274889   34   34   28   28
 -0.3229614569685245   34   34   29   29
 -0.3231728614045392   34   34   30   30
 -0.3232730454533927   34   34   31   31
 -0.3243564956537076   34   34   32   32
 -0.324376267607849   34   34   33   33
 -0.3245028601672727   34   34   34   34
 -0.2966302928483697   35   35    1    1
 -0.2968810188170298   35   35    2    2
 -0.297203143926017   35   35    3    3
 -0.2989011165904299   35   35    4    4
 -0.3019312856518366   35   35    5    5
 -0.3060169810353864   35   35    6    6
 -0.3065747850480959   35   35    7    7
 -0.3077790312737305   35   35    8    8
 -0.3088441241551782   35   35    9    9
 -0.3090723724030213   35   35   10   10
 -0.3095435303900015   35   35   11   11
 -0.3095521223753545   35   35   12   12
 -0.3098725497182812   35   35   13   13
 -0.3103682865260801   35   35   14   14
 -0.3114366722100489   35   35   15   15
 -0.3115631909709661   35   35   16   16
 -0.311731695965721   35   35   17   17
 -0.3127036880044143   35   35   18   18
 -0.3143825867237661   35   35   19   19
 -0.3147528687530426   35   35   20   20
 -0.3148669707244717   35   35   21   21
 -0.3152183442345165   35   35   22   22
 -0.3204379251428116   35   35   23   23
 -0.3208511552844007   35   35   24   24
 -0.3215509090596643   35   35   25   25
 -0.3222092166397208   35   35   26   26
 -0.3227068963359668   35   35   27   27
 -0.3228973340847255   35   35   28   28
 -0.3230928055918245   35   35   29   29
 -0.3233042960061534   35   35   30   30
 -0.3234045207999212   35   35   31   31
 -0.3244884116400993   35   35   32   32
 -0.3245081916355066   35   35   33   33
 -0.3246348356802021   35   35   34   34
 -0.3247668648676539   35   35   35   35
 -0.2966760805244552   36   36    1    1
 -0.2969268451950272   36   36    2    2
 -0.2972490200270551   36   36    3    3
 -0.2989472547895216   36   36    4    4
 -0.3019778915860275   36   36    5    5
 -0.3060642176350937   36   36    6    6
 -0.3066221077500997   36   36    7    7
 -0.3078265398624676   36   36    8    8
 -0.3088917971510208   36   36    9    9
 -0.3091200806311281   36   36   10   10
 -0.3095913113457757   36   36   11   11
 -0.3095999046573825   36   36   12   12
 -0.3099203814612838   36   36   13   13
 -0.3104161947907223   36   36   14   14
 -0.3114847453900716   36   36   15   15
 -0.3116112836803497   36   36   16   16
 -0.3117798146854358   36   36   17   17
 -0.3127519567602436   36   36   18   18
 -0.3144311146334062   36   36   19   19
 -0.3148014538191971   36   36   20   20
 -0.3149155734033388   36   36   21   21
 -0.3152670011511902   36   36   22   22
 -0.3204873877508988   36   36   23   23
 -0.3209006816784475   36   36   24   24
 -0.3216005434672888   36   36   25   25
 -0.3222589526633129   36   36   26   26
 -0.3227567091811017   36   36   27   27
 -0.3229471763257184   36   36   28   28
 -0.3231426780056832   36   36   29   29
 -0.3233542010655471   36   36   30   30
 -0.3234544413299547   36   36   31   31
 -0.32453849947888   36   36   32   32
 -0.3245582825275158   36   36   33   33
 -0.3246849461209109   36   36   34   34
 -0.3248169956883098   36   36   35   35
 -0.3248671342471293   36   36   36   36
 -0.2967576865424589   37   37    1    1
 -0.2970085201903013   37   37    2    2
 -0.2973307836422311   37   37    3    3
 -0.29902948553429   37   37    4    4
 -0.3020609559612003   37   37    5    5
 -0.3061484060267243   37   37    6    6
 -0.3067064495993015   37   37    7    7
 -0.3079112130120846   37   37    8    8
 -0.3089767633185492   37   37    9    9
 -0.3092051095920767   37   37   10   10
 -0.3096764699270904   37   37   11   11
 -0.30968506560244   37   37   12   12
 -0.3100056305591704   37   37   13   13
 -0.3105015802708593   37   37   14   14
 -0.3115704247940035   37   37   15   15
 -0.3116969978908828   37   37   16   16
 -0.311865575253411   37   37   17   17
 -0.3128379847331391   37   37   18   18
 -0.3145176044884573   37   37   19   19
 -0.3148880455426099   37   37   20   20
 -0.3150021965173673   37   37   21   21
 -0.315353720931654   37   37   22   22
 -0.3205755434912892   37   37   23   23
 -0.3209889511026632   37   37   24   24
 -0.3216890054009028   37   37   25   25
 -0.3223475957040543   37   37   26   26
 -0.3228454891386018   37   37   27   27
 -0.3230360086745849   37   37   28   28
 -0.3232315641307544   37   37   29   29
 -0.3234431453737876   37   37   30   30
 -0.3235434132110577   37   37   31   31
 -0.3246277695494046   37   37   32   32
 -0.3246475580397188   37   37   33   33
 -0.3247742564741819   37   37   34   34
 -0.3249063423641564   37   37   35   35
 -0.3249564947144759   37   37   36   36
 -0.3250458797620038   37   37   37   37
 -0.2967788661343881   38   38    1    1
 -0.2970297176842244   38   38    2    2
 -0.2973520041360923   38   38    3    3
 -0.2990508272644814   38   38    4    4
 -0.3020825140473936   38   38    5    5
 -0.3061702558341715   38   38    6    6
 -0.3067283392343106   38   38    7    7
 -0.3079331886310415   38   38    8    8
 -0.3089988149858166   38   38    9    9
 -0.3092271775564144   38   38   10   10
 -0.3096985715324087   38   38   11   11
 -0.3097071678212315   38   38   12   12
 -0.3100277556566784   38   38   13   13
 -0.3105237407642912   38   38   14   14
 -0.3115926615708541   38   38   15   15
 -0.3117192437012535   38   38   16   16
 -0.3118878330951457   38   38   17   17
 -0.3128603119757248   38   38   18   18
 -0.3145400516054814   38   38   19   19
 -0.3149105190980068   38   38   20   20
 -0.3150246782197177   38   38   21   21
 -0.3153762277222969   38   38   22   22
 -0.320598422963335   38   38   23   23
 -0.3210118600796044   38   38   24   24
 -0.3217119643407095   38   38   25   25