 &FCI NORB=  43,NELEC=63,MS2=3,
  ORBSYM=1,1,1,1,1,1,1,1,1,1,1,1,1,1,1,1,1,1,1,1,1,1,1,1,1,1,1,1,1,1,1,1,1,1,1,1,1,1,1,1,1,1,1,
  ISYM=1,
 &END
 -0.8785278582849801    1    1    1    1
 -0.8724367997605448    2    2    1    1
 -0.8663879721040304    2    2    2    2
 -0.8644855930155007    3    3    1    1
 -0.8584918931106759    3    3    2    2
 -0.8506677773318128    3    3    3    3
 -0.8605225092527122    4    4    1    1
 -0.8545562864220733    4    4    2    2
 -0.8467680389404401    4    4    3    3
 -0.8428861782210875    4    4    4    4
 -0.8362773693663142    5    5    1    1
 -0.8304792442967064    5    5    2    2
 -0.8229104299474221    5    5    3    3
 -0.8191379402847802    5    5    4    4
 -0.7960588066945302    5    5    5    5
 -0.7670142860182243    6    6    1    1
 -0.7616963796352265    6    6    2    2
 -0.7547544379460479    6    6    3    3
 -0.7512943975681826    6    6    4    4
 -0.7301267493439356    6    6    5    5
 -0.6696553893060587    6    6    6    6
 -0.7557889078716857    7    7    1    1
 -0.750548829908817    7    7    2    2
 -0.7437084846591736    7    7    3    3
 -0.7402990825319273    7    7    4    4
 -0.7194412262634777    7    7    5    5
 -0.6598548743614787    7    7    6    6
 -0.6501977915384238    7    7    7    7
 -0.7542452351627281    8    8    1    1
 -0.7490158598778952    8    8    2    2
 -0.7421894857968835    8    8    3    3
 -0.7387870472555841    8    8    4    4
 -0.7179717924372929    8    8    5    5
 -0.6585071435985427    8    8    6    6
 -0.6488697850332095    8    8    7    7
 -0.6475444909353594    8    8    8    8
 -0.7204801222801694    9    9    1    1
 -0.7154848491660444    9    9    2    2
 -0.7089640697121889    9    9    3    3
 -0.7057139473090196    9    9    4    4
 -0.6858305239373893    9    9    5    5
 -0.6290279145613463    9    9    6    6
 -0.6198219892814724    9    9    7    7
 -0.6185560243019651    9    9    8    8
 -0.5908652772994514    9    9    9    9
 -0.7109492876477193   10   10    1    1
 -0.7060200942497757   10   10    2    2
 -0.6995855745950839   10   10    3    3
 -0.6963784462707266   10   10    4    4
 -0.6767580497533034   10   10    5    5
 -0.6207068508047145   10   10    6    6
 -0.6116227056389171   10   10    7    7
 -0.6103734874127165   10   10    8    8
 -0.5830490460477472   10   10    9    9
 -0.5753362114133894   10   10   10   10
 -0.6808942286108495   11   11    1    1
 -0.676173414630613   11   11    2    2
 -0.6700109113791383   11   11    3    3
 -0.6669393629516908   11   11    4    4
 -0.648148409807942   11   11    5    5
 -0.5944667499006834   11   11    6    6
 -0.5857666328561615   11   11    7    7
 -0.58457022476451   11   11    8    8
 -0.5584009117787968   11   11    9    9
 -0.5510141337342755   11   11   10   10
 -0.527720260869831   11   11   11   11
 -0.67806648497915   12   12    1    1
 -0.6733652764693495   12   12    2    2
 -0.6672283660024697   12   12    3    3
 -0.664169573670081   12   12    4    4
 -0.6454566590760115   12   12    5    5
 -0.5919979383060862   12   12    6    6
 -0.5833339527186012   12   12    7    7
 -0.5821425132920081   12   12    8    8
 -0.5560818810749544   12   12    9    9
 -0.5487257802100838   12   12   10   10
 -0.5255286464541267   12   12   11   11
 -0.5233461337805825   12   12   12   12
 -0.6743893179535418   13   13    1    1
 -0.6697136041840002   13   13    2    2
 -0.6636099742955117   13   13    3    3
 -0.6605677698502286   13   13    4    4
 -0.6419563357363518   13   13    5    5
 -0.5887875225928925   13   13    6    6
 -0.5801705219586804   13   13    7    7
 -0.5789855437300221   13   13    8    8
 -0.553066238801041   13   13    9    9
 -0.5457500302065253   13   13   10   10
 -0.5226786949337932   13   13   11   11
 -0.5205080180666395   13   13   12   12
 -0.5176852935064393   13   13   13   13
 -0.6471426305585792   14   14    1    1
 -0.6426558250472727   14   14    2    2
 -0.6367987941055927   14   14    3    3
 -0.6338795008501897   14   14    4    4
 -0.6160200061780757   14   14    5    5
 -0.5649993202251198   14   14    6    6
 -0.556730463780491   14   14    7    7
 -0.5555933610600985   14   14    8    8
 -0.5307212482797679   14   14    9    9
 -0.5237006292552293   14   14   10   10
 -0.5015614224181434   14   14   11   11
 -0.4994784452705142   14   14   12   12
 -0.4967697644705669   14   14   13   13
 -0.4766992649542456   14   14   14   14
 -0.6467730472027833   15   15    1    1
 -0.6422888041074872   15   15    2    2
 -0.6364351181179835   15   15    3    3
 -0.6335174920718587   15   15    4    4
 -0.6156681969626572   15   15    5    5
 -0.5646766489391761   15   15    6    6
 -0.5564125148410117   15   15    7    7
 -0.5552760615203335   15   15    8    8
 -0.5304181532112786   15   15    9    9
 -0.5234015436644291   15   15   10   10
 -0.5012749805351923   15   15   11   11
 -0.4991931929764541   15   15   12   12
 -0.4964860591049467   15   15   13   13
 -0.4764270218570861   15   15   14   14
 -0.4761549342380432   15   15   15   15
 -0.64575744171273   16   16    1    1
 -0.6412802400702682   16   16    2    2
 -0.6354357459227153   16   16    3    3
 -0.6325227013245082   16   16    4    4
 -0.6147014343500362   16   16    5    5
 -0.5637899566021225   16   16    6    6
 -0.5555387993897404   16   16    7    7
 -0.554404130602658   16   16    8    8
 -0.5295852558127937   16   16    9    9
 -0.5225796642067941   16   16   10   10
 -0.500487845659273   16   16   11   11
 -0.498409327059999   16   16   12   12
 -0.4957064441077809   16   16   13   13
 -0.4756789048767937   16   16   14   14
 -0.4754072445075889   16   16   15   15
 -0.4746607288486245   16   16   16   16
 -0.6452848024714518   17   17    1    1
 -0.6408108777578346   17   17    2    2
 -0.6349706612803496   17   17    3    3
 -0.6320597487817512   17   17    4    4
 -0.6142515254511575   17   17    5    5
 -0.5633773105525132   17   17    6    6
 -0.5551321924818158   17   17    7    7
 -0.5539983541752823   17   17    8    8
 -0.5291976446799889   17   17    9    9
 -0.5221971805681341   17   17   10   10
 -0.5001215313431516   17   17   11   11
 -0.4980445340417989   17   17   12   12
 -0.4953436293688313   17   17   13   13
 -0.4753307485843991   17   17   14   14
 -0.4750592870473601   17   17   15   15
 -0.4743133177740381   17   17   16   16
 -0.4739661609746582   17   17   17   17
 -0.6438733723936608   18   18    1    1
 -0.6394092334860666   18   18    2    2
 -0.6335817913016777   18   18    3    3
 -0.6306772458358042   18   18    4    4
 -0.6129079743942749   18   18    5    5
 -0.562145036557816   18   18    6    6
 -0.5539179530163612   18   18    7    7
 -0.5527865947519472   18   18    8    8
 -0.5280401317958535   18   18    9    9
 -0.5210549797842808   18   18   10   10
 -0.499027616579957   18   18   11   11
 -0.4969551622903897   18   18   12   12
 -0.4942601653004764   18   18   13   13
 -0.4742910586476743   18   18   14   14
 -0.4740201908778788   18   18   15   15
 -0.4732758532615638   18   18   16   16
 -0.4729294557975137   18   18   17   17
 -0.4718950182034012   18   18   18   18
 -0.6433330133765593   19   19    1    1
 -0.6388726209163503   19   19    2    2
 -0.6330500693068258   19   19    3    3
 -0.6301479614279071   19   19    4    4
 -0.6123936025242501   19   19    5    5
 -0.5616732665601011   19   19    6    6
 -0.5534530874488754   19   19    7    7
 -0.5523226786563079   19   19    8    8
 -0.5275969837191647   19   19    9    9
 -0.5206176938693728   19   19   10   10
 -0.4986088167289875   19   19   11   11
 -0.4965381017089894   19   19   12   12
 -0.4938453664462836   19   19   13   13
 -0.4738930185030447   19   19   14   14
 -0.4736223780540983   19   19   15   15
 -0.4728786651095899   19   19   16   16
 -0.4725325583533113   19   19   17   17
 -0.4714989888921354   19   19   18   18
 -0.4711032919412662   19   19   19   19
 -0.6378778803376872   20   20    1    1
 -0.6334553097112253   20   20    2    2
 -0.6276821303443734   20   20    3    3
 -0.6248046308474955   20   20    4    4
 -0.6072008197749392   20   20    5    5
 -0.5569105661704822   20   20    6    6
 -0.5487600899498633   20   20    7    7
 -0.5476392664424024   20   20    8    8
 -0.5231232326800415   20   20    9    9
 -0.516203123618202   20   20   10   10
 -0.4943808704351462   20   20   11   11
 -0.4923277140133931   20   20   12   12
 -0.4896578117606387   20   20   13   13
 -0.469874649464965   20   20   14   14
 -0.469606303907815   20   20   15   15
 -0.4688688972665285   20   20   16   16
 -0.4685257253175144   20   20   17   17
 -0.4675009199937268   20   20   18   18
 -0.4671085783494642   20   20   19   19
 -0.463147737874139   20   20   20   20
 -0.6378348446836217   21   21    1    1
 -0.6334125724343657   21   21    2    2
 -0.6276397825661273   21   21    3    3
 -0.6247624772052695   21   21    4    4
 -0.6071598538075752   21   21    5    5
 -0.5568729931314885   21   21    6    6
 -0.548723066798373   21   21    7    7
 -0.5476023189094188   21   21    8    8
 -0.523087939168275   21   21    9    9
 -0.5161682969848599   21   21   10   10
 -0.4943475160819503   21   21   11   11
 -0.4922944981803312   21   21   12   12
 -0.4896247760576508   21   21   13   13
 -0.4698429484709474   21   21   14   14
 -0.469574621018245   21   21   15   15
 -0.4688372641275112   21   21   16   16
 -0.4684941153312505   21   21   17   17
 -0.4674693791479186   21   21   18   18
 -0.4670770639737373   21   21   19   19
 -0.463116490724108   21   21   20   20
 -0.463085245682226   21   21   21   21
 -0.6359050282614832   22   22    1    1
 -0.6314961359234704   22   22    2    2
 -0.6257408120572578   22   22    3    3
 -0.6228722121962377   22   22    4    4
 -0.6053228468354612   22   22    5    5
 -0.5551881327696756   22   22    6    6
 -0.5470628646404948   22   22    7    7
 -0.5459455076570378   22   22    8    8
 -0.5215052979820127   22   22    9    9
 -0.5146065916869896   22   22   10   10
 -0.4928518311680106   22   22   11   11
 -0.4908050248236537   22   22   12   12
 -0.4881433801423953   22   22   13   13
 -0.4684214039358022   22   22   14   14
 -0.4681538883276219   22   22   15   15
 -0.4674187623646096   22   22   16   16
 -0.4670766517903711   22   22   17   17
 -0.4660550160220314   22   22   18   18
 -0.4656638878263792   22   22   19   19
 -0.4617152975835768   22   22   20   20
 -0.4616841470758761   22   22   21   21
 -0.4602872875968209   22   22   22   22
 -0.6350940564792851   23   23    1    1
 -0.6306907868162285   23   23    2    2
 -0.6249428027335455   23   23    3    3
 -0.6220778612073998   23   23    4    4
 -0.6045508766102132   23   23    5    5
 -0.5544800995108123   23   23    6    6
 -0.546365193562905   23   23    7    7
 -0.5452492615484984   23   23    8    8
 -0.5208402205535696   23   23    9    9
 -0.5139503122014629   23   23   10   10
 -0.4922232956004045   23   23   11   11
 -0.4901790995549367   23   23   12   12
 -0.4875208492779287   23   23   13   13
 -0.4678240245727107   23   23   14   14
 -0.4675568501280688   23   23   15   15
 -0.4668226616736244   23   23   16   16
 -0.4664809873941308   23   23   17   17
 -0.4654606545212597   23   23   18   18
 -0.4650700251326869   23   23   19   19
 -0.4611264705400587   23   23   20   20
 -0.4610953597587034   23   23   21   21
 -0.4597002816991539   23   23   22   22
 -0.4591140244120466   23   23   23   23
 -0.634018648866842   24   24    1    1
 -0.629622835280042   24   24    2    2
 -0.6238845842845699   24   24    3    3
 -0.6210244939767515   24   24    4    4
 -0.6035271879011425   24   24    5    5
 -0.5535411958730303   24   24    6    6
 -0.5454400309317371   24   24    7    7
 -0.5443259885300124   24   24    8    8
 -0.519958279473606   24   24    9    9
 -0.5130800378341936   24   24   10   10
 -0.4913898116877303   24   24   11   11
 -0.4893490770885887   24   24   12   12
 -0.4866953280386895   24   24   13   13
 -0.4670318560550296   24   24   14   14
 -0.4667651340180723   24   24   15   15
 -0.4660321887682286   24   24   16   16
 -0.4656910930473239   24   24   17   17
 -0.4646724879086798   24   24   18   18
 -0.4642825199746015   24   24   19   19
 -0.4603456430206407   24   24   20   20
 -0.4603145849193109   24   24   21   21
 -0.4589218691516928   24   24   22   22
 -0.4583366045766773   24   24   23   23
 -0.4575605011497998   24   24   24   24
 -0.6331383011588627   25   25    1    1
 -0.628748591248071   25   25    2    2
 -0.6230183079300807   25   25    3    3
 -0.6201621889154596   25   25    4    4
 -0.6026891782029711   25   25    5    5
 -0.5527725927350472   25   25    6    6
 -0.544682676425006   25   25    7    7
 -0.5435701808936717   25   25    8    8
 -0.5192363068937811   25   25    9    9
 -0.5123676158319   25   25   10   10
 -0.490707507002818   25   25   11   11
 -0.4886696060049122   25   25   12   12
 -0.4860195417392031   25   25   13   13
 -0.4663833728838071   25   25   14   14
 -0.4661170211957889   25   25   15   15
 -0.465385093655238   25   25   16   16
 -0.4650444715526356   25   25   17   17
 -0.4640272807678133   25   25   18   18
 -0.463637854312093   25   25   19   19
 -0.4597064437913503   25   25   20   20
 -0.4596754288148219   25   25   21   21
 -0.458284646861195   25   25   22   22
 -0.4577001949378706   25   25   23   23
 -0.4569251691462871   25   25   24   24
 -0.4562907193141017   25   25   25   25
 -0.628810831160696   26   26    1    1
 -0.6244511247071345   26   26    2    2
 -0.6187600076014775   26   26    3    3
 -0.6159234100236805   26   26    4    4
 -0.5985698265034777   26   26    5    5
 -0.5489944185091452   26   26    6    6
 -0.5409597963900499   26   26    7    7
 -0.5398549047124488   26   26    8    8
 -0.5156873515771797   26   26    9    9
 -0.5088656076900985   26   26   10   10
 -0.4873535446686121   26   26   11   11
 -0.4853295726265309   26   26   12   12
 -0.4826976214232951   26   26   13   13
 -0.4631956648426029   26   26   14   14
 -0.4629311336556296   26   26   15   15
 -0.4622042088048019   26   26   16   16
 -0.461865914837975   26   26   17   17
 -0.4608556765035031   26   26   18   18
 -0.4604689117589769   26   26   19   19
 -0.4565643722410591   26   26   20   20
 -0.4565335692504114   26   26   21   21
 -0.4551522932249006   26   26   22   22
 -0.4545718360025111   26   26   23   23
 -0.4538021074751347   26   26   24   24
 -0.4531719940771993   26   26   25   25
 -0.4500745851780867   26   26   26   26
 -0.6278589125218559   27   27    1    1
 -0.6235058059638866   27   27    2    2
 -0.617823304295783   27   27    3    3
 -0.6149910008712851   27   27    4    4
 -0.5976636878903049   27   27    5    5
 -0.548163329104032   27   27    6    6
 -0.5401408701128158   27   27    7    7
 -0.5390376510638173   27   27    8    8
 -0.5149066837237423   27   27    9    9
 -0.5080952668616321   27   27   10   10
 -0.4866157696496631   27   27   11   11
 -0.4845948615762922   27   27   12   12
 -0.4819668947246017   27   27   13   13
 -0.4624944609750109   27   27   14   14
 -0.4622303302457825   27   27   15   15
 -0.4615045058424666   27   27   16   16
 -0.4611667239983902   27   27   17   17
 -0.4601580150025565   27   27   18   18
 -0.459771835757756   27   27   19   19
 -0.45587320708577   27   27   20   20
 -0.4558424507259046   27   27   21   21
 -0.4544632657305238   27   27   22   22
 -0.4538836872271729   27   27   23   23
 -0.4531151239452021   27   27   24   24
 -0.4524859644377826   27   27   25   25
 -0.4493932445184348   27   27   26   26
 -0.448712935299148   27   27   27   27
 -0.6228121867421585   28   28    1    1
 -0.6184940704258659   28   28    2    2
 -0.6128572446685276   28   28    3    3
 -0.6100477072801936   28   28    4    4
 -0.5928596711261724   28   28    5    5
 -0.5437571958959163   28   28    6    6
 -0.5357992213769279   28   28    7    7
 -0.5347048699953372   28   28    8    8
 -0.5107678672108897   28   28    9    9
 -0.5040112004723961   28   28   10   10
 -0.4827043553167294   28   28   11   11
 -0.480699691289065   28   28   12   12
 -0.4780928480175199   28   28   13   13
 -0.4587769335614161   28   28   14   14
 -0.4585149259132397   28   28   15   15
 -0.4577949356816695   28   28   16   16
 -0.4574598689258181   28   28   17   17
 -0.4564592679262109   28   28   18   18
 -0.4560761927876221   28   28   19   19
 -0.4522089012670756   28   28   20   20
 -0.452178392126627   28   28   21   21
 -0.4508102930111028   28   28   22   22
 -0.4502353731559226   28   28   23   23
 -0.4494729875805211   28   28   24   24
 -0.4488488852530543   28   28   25   25
 -0.445781024595931   28   28   26   26
 -0.4451061836976424   28   28   27   27
 -0.4415284231416172   28   28   28   28
 -0.6209204642176726   29   29    1    1
 -0.6166154636978796   29   29    2    2
 -0.6109957591698281   29   29    3    3
 -0.6081947554378259   29   29    4    4
 -0.5910589260257991   29   29    5    5
 -0.5421055940852512   29   29    6    6
 -0.5341717910259216   29   29    7    7
 -0.5330807636145458   29   29    8    8
 -0.5092164668051901   29   29    9    9
 -0.5024803226880127   29   29   10   10
 -0.4812381946971104   29   29   11   11
 -0.4792396196127516   29   29   12   12
 -0.476640694336775   29   29   13   13
 -0.4573834498155818   29   29   14   14
 -0.457122237986402   29   29   15   15
 -0.4564044346448245   29   29   16   16
 -0.4560703856168576   29   29   17   17
 -0.4550728238311407   29   29   18   18
 -0.4546909122405422   29   29   19   19
 -0.4508353671864809   29   29   20   20
 -0.4508049507141423   29   29   21   21
 -0.4494410070470304   29   29   22   22
 -0.4488678334467614   29   29   23   23
 -0.4481077635324789   29   29   24   24
 -0.4474855568461952   29   29   25   25
 -0.4444270144735092   29   29   26   26
 -0.443754223329151   29   29   27   27
 -0.4401873298216119   29   29   28   28
 -0.4388503099229283   29   29   29   29
 -0.620041655924117   30   30    1    1
 -0.6157427484071779   30   30    2    2
 -0.6101309976239797   30   30    3    3
 -0.6073339582407981   30   30    4    4
 -0.5902223817079596   30   30    5    5
 -0.5413383349602596   30   30    6    6
 -0.5334157608623346   30   30    7    7
 -0.5323262776164241   30   30    8    8
 -0.5084957566981277   30   30    9    9
 -0.5017691464579248   30   30   10   10
 -0.4805570831199483   30   30   11   11
 -0.4785613366818666   30   30   12   12
 -0.4759660897467056   30   30   13   13
 -0.4567361006103346   30   30   14   14
 -0.4564752584824855   30   30   15   15
 -0.45575847107059   30   30   16   16
 -0.4554248948327358   30   30   17   17
 -0.4544287449276399   30   30   18   18
 -0.4540473738685467   30   30   19   19
 -0.4501972856888597   30   30   20   20
 -0.4501669122659125   30   30   21   21
 -0.4488048990312404   30   30   22   22
 -0.4482325366616243   30   30   23   23
 -0.4474735424982356   30   30   24   24
 -0.446852216440676   30   30   25   25
 -0.4437980029193618   30   30   26   26
 -0.4431261639975048   30   30   27   27
 -0.439564318826713   30   30   28   28
 -0.4382291912544115   30   30   29   29
 -0.437608951674713   30   30   30   30
 -0.6169504191721487   31   31    1    1
 -0.6126729439908967   31   31    2    2
 -0.6070891707638806   31   31    3    3
 -0.6043060761065983   31   31    4    4
 -0.5872798098650234   31   31    5    5
 -0.5386394760363629   31   31    6    6
 -0.5307564001753511   31   31    7    7
 -0.5296723485816824   31   31    8    8
 -0.5059606354586   31   31    9    9
 -0.4992675609407022   31   31   10   10
 -0.4781612509971128   31   31   11   11
 -0.4761754544142999   31   31   12   12
 -0.4735931461625802   31   31   13   13
 -0.4544590287286833   31   31   14   14
 -0.4541994870372877   31   31   15   15
 -0.453486273191087   31   31   16   16
 -0.4531543600078295   31   31   17   17
 -0.4521631764387333   31   31   18   18
 -0.4517837067167885   31   31   19   19
 -0.4479528132701742   31   31   20   20
 -0.4479225912748617   31   31   21   21
 -0.446567368399075   31   31   22   22
 -0.445997859559662   31   31   23   23
 -0.4452426493850263   31   31   24   24
 -0.4446244209676426   31   31   25   25
 -0.4415854343218056   31   31   26   26
 -0.4409169448735635   31   31   27   27
 -0.4373728573914553   31   31   28   28
 -0.4360443861387424   31   31   29   29
 -0.4354272387825509   31   31   30   30
 -0.4332564028871359   31   31   31   31
 -0.6163491067885979   32   32    1    1
 -0.6120758006600232   32   32    2    2
 -0.6064974696725842   32   32    3    3
 -0.6037170875659866   32   32    4    4
 -0.5867074160205471   32   32    5    5
 -0.5381144896239304   32   32    6    6
 -0.5302390970239851   32   32    7    7
 -0.5291561020041148   32   32    8    8
 -0.5054674995659318   32   32    9    9
 -0.4987809484710946   32   32   10   10
 -0.4776952098491961   32   32   11   11
 -0.4757113487283576   32   32   12   12
 -0.4731315573303131   32   32   13   13
 -0.4540160890153791   32   32   14   14
 -0.4537568002869903   32   32   15   15
 -0.4530442815765809   32   32   16   16
 -0.4527126918933992   32   32   17   17
 -0.4517224743840316   32   32   18   18
 -0.4513433745132707   32   32   19   19
 -0.4475162148572463   32   32   20   20
 -0.4474860223178826   32   32   21   21
 -0.4461321203137129   32   32   22   22
 -0.4455631665476202   32   32   23   23
 -0.4448086924406102   32   32   24   24
 -0.4441910665812144   32   32   25   25
 -0.4411550418918764   32   32   26   26
 -0.440487203988671   32   32   27   27
 -0.4369465707609488   32   32   28   28
 -0.4356193943063114   32   32   29   29
 -0.4350028484544488   32   32   30   30
 -0.4328341283700712   32   32   31   31
 -0.4324122654239992   32   32   32   32
 -0.6158233672833145   33   33    1    1
 -0.6115537062413071   33   33    2    2
 -0.6059801335133373   33   33    3    3
 -0.6032021230443346   33   33    4    4
 -0.5862069605753337   33   33    5    5
 -0.5376554834495971   33   33    6    6
 -0.5297868084792612   33   33    7    7
 -0.5287047372431032   33   33    8    8
 -0.5050363409413282   33   33    9    9
 -0.4983554934064149   33   33   10   10
 -0.4772877407046217   33   33   11   11
 -0.4753055717970966   33   33   12   12
 -0.4727279809348173   33   33   13   13
 -0.4536288179195007   33   33   14   14
 -0.4533697503617543   33   33   15   15
 -0.4526578394225417   33   33   16   16
 -0.4523265325819797   33   33   17   17
 -0.4513371597180536   33   33   18   18
 -0.4509583832156183   33   33   19   19
 -0.4471344880877678   33   33   20   20
 -0.4471043213023326   33   33   21   21
 -0.4457515741627712   33   33   22   22
 -0.4451831057084413   33   33   23   23
 -0.4444292751601538   33   33   24   24
 -0.4438121761293203   33   33   25   25
 -0.4407787411380942   33   33   26   26
 -0.4401114728938126   33   33   27   27
 -0.4365738597901419   33   33   28   28
 -0.4352478154034917   33   33   29   29
 -0.4346317954589558   33   33   30   30
 -0.4324649252707033   33   33   31   31
 -0.4320434221694239   33   33   32   32
 -0.431674893534385   33   33   33   33
 -0.5985932649915662   34   34    1    1
 -0.5944430646592579   34   34    2    2
 -0.5890254347443337   34   34    3    3
 -0.5863251501413688   34   34    4    4
 -0.5698054947793775   34   34    5    5
 -0.522612437878879   34   34    6    6
 -0.5149639203138028   34   34    7    7
 -0.5139121243141436   34   34    8    8
 -0.4909059453152947   34   34    9    9
 -0.4844120209998266   34   34   10   10
 -0.4639337222768755   34   34   11   11
 -0.4620070124098003   34   34   12   12
 -0.4595015398797943   34   34   13   13
 -0.4409367517354613   34   34   14   14
 -0.4406849326206249   34   34   15   15
 -0.439992940214805   34   34   16   16
 -0.4396709029977359   34   34   17   17
 -0.4387092117655176   34   34   18   18
 -0.4383410330387258   34   34   19   19
 -0.4346241265503233   34   34   20   20
 -0.4345948038004126   34   34   21   21
 -0.4332799051297918   34   34   22   22
 -0.4327273418361592   34   34   23   23
 -0.4319946026886656   34   34   24   24
 -0.4313947694518735   34   34   25   25
 -0.428446206841221   34   34   26   26
 -0.4277976080737988   34   34   27   27
 -0.4243589737339801   34   34   28   28
 -0.4230700307008011   34   34   29   29
 -0.4224712463585856   34   34   30   30
 -0.4203650029620075   34   34   31   31
 -0.4199552930825141   34   34   32   32
 -0.4195970754983649   34   34   33   33
 -0.4078571823467801   34   34   34   34
 -0.5968643460839778   35   35    1    1
 -0.5927261327890192   35   35    2    2
 -0.5873241506325013   35   35    3    3
 -0.5846316652704886   35   35    4    4
 -0.5681597236837309   35   35    5    5
 -0.521102974645606   35   35    6    6
 -0.5134765483191164   35   35    7    7
 -0.5124277902253226   35   35    8    8
 -0.4894880600493869   35   35    9    9
 -0.4830128921570028   35   35   10   10
 -0.4625937409720012   35   35   11   11
 -0.4606725960274092   35   35   12   12
 -0.4581743600620004   35   35   13   13
 -0.4396631926566821   35   35   14   14
 -0.4394121008718282   35   35   15   15
 -0.4387221071499634   35   35   16   16
 -0.4384010000740537   35   35   17   17
 -0.4374420864978029   35   35   18   18
 -0.4370749711828459   35   35   19   19
 -0.4333688002477503   35   35   20   20
 -0.4333395621908351   35   35   21   21
 -0.4320284613463948   35   35   22   22
 -0.4314774940231512   35   35   23   23
 -0.4307468712485614   35   35   24   24
 -0.4301487705120915   35   35   25   25
 -0.4272087242445821   35   35   26   26
 -0.4265619988271256   35   35   27   27
 -0.4231332963062466   35   35   28   28
 -0.4218480761314944   35   35   29   29
 -0.4212510212600755   35   35   30   30
 -0.4191508613332678   35   35   31   31
 -0.4187423348201748   35   35   32   32
 -0.418385151877059   35   35   33   33
 -0.4066791670977027   35   35   34   34
 -0.4055045543139665   35   35   35   35
 -0.5962513310157977   36   36    1    1
 -0.5921173679112247   36   36    2    2
 -0.586720933910635   36   36    3    3
 -0.5840312138907113   36   36    4    4
 -0.5675761899644927   36   36    5    5
 -0.5205677709973615   36   36    6    6
 -0.5129491774628375   36   36    7    7
 -0.511901496505781   36   36    8    8
 -0.4889853267927045   36   36    9    9
 -0.4825168092816223   36   36   10   10
 -0.4621186297754251   36   36   11   11
 -0.4601994579605851   36   36   12   12
 -0.4577037878316192   36   36   13   13
 -0.4392116324926499   36   36   14   14
 -0.4389607985939449   36   36   15   15
 -0.4382715135365383   36   36   16   16
 -0.4379507362566322   36   36   17   17
 -0.4369928075414728   36   36   18   18
 -0.4366260692757085   36   36   19   19
 -0.4329237047978814   36   36   20   20
 -0.432894496770184   36   36   21   21
 -0.4315847425040388   36   36   22   22
 -0.4310343410569   36   36   23   23
 -0.4303044686752142   36   36   24   24
 -0.4297069822236587   36   36   25   25
 -0.426769955557965   36   36   26   26
 -0.4261238943658529   36   36   27   27
 -0.4226987133257314   36   36   28   28
 -0.4214148131482923   36   36   29   29
 -0.4208183714876224   36   36   30   30
 -0.4187203685495663   36   36   31   31
 -0.4183122616174215   36   36   32   32
 -0.4179554455223636   36   36   33   33
 -0.4062614834833582   36   36   34   34
 -0.405088077096587   36   36   35   35
 -0.4046720276260004   36   36   36   36
 -0.5841047661071288   37   37    1    1
 -0.580055018246309   37   37    2    2
 -0.5747685179807968   37   37    3    3
 -0.5721335917317357   37   37    4    4
 -0.5560137821787127   37   37    5    5
 -0.5099629976562131   37   37    6    6
 -0.5024996066949431   37   37    7    7
 -0.5014732686248313   37   37    8    8
 -0.4790239368513931   37   37    9    9
 -0.4726871930802158   37   37   10   10
 -0.4527045561455858   37   37   11   11
 -0.4508244808388914   37   37   12   12
 -0.4483796513833718   37   37   13   13
 -0.4302642099458093   37   37   14   14
 -0.4300184859228788   37   37   15   15
 -0.4293432426717624   37   37   16   16
 -0.429029000122848   37   37   17   17
 -0.4280905859021833   37   37   18   18
 -0.4277313186640174   37   37   19   19
 -0.4241043770961382   37   37   20   20
 -0.4240757640812916   37   37   21   21
 -0.422792691542097   37   37   22   22
 -0.4222535026265798   37   37   23   23
 -0.4215384988779655   37   37   24   24
 -0.4209531841526408   37   37   25   25
 -0.418075989277968   37   37   26   26
 -0.4174430893549329   37   37   27   27
 -0.4140876845679846   37   37   28   28
 -0.4128299394295873   37   37   29   29
 -0.4122456482111365   37   37   30   30
 -0.4101903848487259   37   37   31   31
 -0.4097905916881118   37   37   32   32
 -0.4094410444906373   37   37   33   33
 -0.3979853066057051   37   37   34   34
 -0.3968358043279896   37   37   35   35
 -0.3964282304307675   37   37   36   36
 -0.3883523721775831   37   37   37   37
 -0.5810346413933132   38   38    1    1
 -0.5770061794930157   38   38    2    2
 -0.5717474657070127   38   38    3    3
 -0.5691263889463752   38   38    4    4
 -0.5530913070459282   38   38    5    5
 -0.507282570970654   38   38    6    6
 -0.4998584084875076   38   38    7    7
 -0.4988374649734011   38   38    8    8
 -0.4765061295805533   38   38    9    9
 -0.4702026924947275   38   38   10   10
 -0.450325086696736   38   38   11   11
 -0.448454893291368   38   38   12   12
 -0.446022914152723   38   38   13   13
 -0.4280026896482971   38   38   14   14
 -0.4277582571803055   38   38   15   15
 -0.4270865630887122   38   38   16   16
 -0.4267739722363281   38   38   17   17
 -0.4258404904333697   38   38   18   18
 -0.4254831115469016   38   38   19   19
 -0.4218752336189535   38   38   20   20
 -0.4218467709975451   38   38   21   21
 -0.4205704424415206   38   38   22   22
 -0.4200340875676189   38   38   23   23
 -0.4193228419644717   38   38   24   24
 -0.4187406037235517   38   38   25   25
 -0.4158785317302586   38   38   26   26
 -0.415248958405135   38   38   27   27