 &FCI NORB=  75,NELEC=101,MS2=1,
  ORBSYM=1,1,1,1,1,1,1,1,1,1,1,1,1,1,1,1,1,1,1,1,1,1,1,1,1,1,1,1,1,1,1,1,1,1,1,1,1,1,1,1,1,1,1,1,1,1,1,1,1,1,1,1,1,1,1,1,1,1,1,1,1,1,1,1,1,1,1,1,1,1,1,1,1,1,1,
  ISYM=1,
 &END
 -0.6450064288764662    1    1    1    1
 -0.6422012651324822    2    2    1    1
 -0.6394083011795055    2    2    2    2
 -0.6378272882148914    3    3    1    1
 -0.63505334689629    3    3    2    2
 -0.6307280538276284    3    3    3    3
 -0.6367511734795006    4    4    1    1
 -0.633981912235244    4    4    2    2
 -0.6296639166147978    4    4    3    3
 -0.6286015747684501    4    4    4    4
 -0.6337931977992931    5    5    1    1
 -0.6310368009324478    5    5    2    2
 -0.6267388642087331    5    5    3    3
 -0.6256814573848501    5    5    4    4
 -0.6227749051685617    5    5    5    5
 -0.5718750840223089    6    6    1    1
 -0.5693879719875009    6    6    2    2
 -0.5655099200716215    6    6    3    3
 -0.564555816085726    6    6    4    4
 -0.5619332180542596    6    6    5    5
 -0.5070354295463291    6    6    6    6
 -0.5650516238716613    7    7    1    1
 -0.562594187390718    7    7    2    2
 -0.5587624073503747    7    7    3    3
 -0.55781968747739    7    7    4    4
 -0.5552283815823689    7    7    5    5
 -0.5009856187657271    7    7    6    6
 -0.4950079927050645    7    7    7    7
 -0.5644760269720528    8    8    1    1
 -0.5620210937894979    8    8    2    2
 -0.5581932170397887    8    8    3    3
 -0.5572514574801861    8    8    4    4
 -0.5546627912513055    8    8    5    5
 -0.5004752835030228    8    8    6    6
 -0.4945037466258651    8    8    7    7
 -0.4940000142032373    8    8    8    8
 -0.5347124198450917    9    9    1    1
 -0.5323869300104862    9    9    2    2
 -0.5287608889708246    9    9    3    3
 -0.5278687863677636    9    9    4    4
 -0.5254166149428032    9    9    5    5
 -0.4740862979603719    9    9    6    6
 -0.4684296273823365    9    9    7    7
 -0.4679524556871936    9    9    8    8
 -0.4432783289224445    9    9    9    9
 -0.5189006950229351   10   10    1    1
 -0.5166439711342418   10   10    2    2
 -0.5131251540171694   10   10    3    3
 -0.5122594313528366   10   10    4    4
 -0.5098797719144118   10   10    5    5
 -0.4600673191465342   10   10    6    6
 -0.4545779192644279   10   10    7    7
 -0.454114857784901   10   10    8    8
 -0.4301703578029827   10   10    9    9
 -0.417449996218339   10   10   10   10
 -0.5186341176552972   11   11    1    1
 -0.5163785531242988   11   11    2    2
 -0.5128615437461894   11   11    3    3
 -0.5119962658337546   11   11    4    4
 -0.5096178289093002   11   11    5    5
 -0.4598309665340774   11   11    6    6
 -0.4543443867479635   11   11    7    7
 -0.4538815631592535   11   11    8    8
 -0.4299493643012994   11   11    9    9
 -0.4172355376096308   11   11   10   10
 -0.4170211891757826   11   11   11   11
 -0.5137963097112261   12   12    1    1
 -0.5115617850378749   12   12    2    2
 -0.5080775822479354   12   12    3    3
 -0.5072203756293396   12   12    4    4
 -0.5048641247135877   12   12    5    5
 -0.4555416731245239   12   12    6    6
 -0.4501062720371717   12   12    7    7
 -0.4496477656569869   12   12    8    8
 -0.425938805837524   12   12    9    9
 -0.4133435734489964   12   12   10   10
 -0.4131312244527492   12   12   11   11
 -0.4092775452373573   12   12   12   12
 -0.5118388935842432   13   13    1    1
 -0.5096128818070514   13   13    2    2
 -0.5061419528273785   13   13    3    3
 -0.5052880119193915   13   13    4    4
 -0.5029407376417635   13   13    5    5
 -0.4538061904037782   13   13    6    6
 -0.4483914966308694   13   13    7    7
 -0.4479347370280862   13   13    8    8
 -0.424316101524753   13   13    9    9
 -0.4117688533481289   13   13   10   10
 -0.4115573133404672   13   13   11   11
 -0.4077183155342287   13   13   12   12
 -0.4061650260476974   13   13   13   13
 -0.5023997372550939   14   14    1    1
 -0.5002147768192887   14   14    2    2
 -0.4968078575146466   14   14    3    3
 -0.4959696646903387   14   14    4    4
 -0.4936656780353037   14   14    5    5
 -0.4454372531697187   14   14    6    6
 -0.4401224153117034   14   14    7    7
 -0.4396740791119668   14   14    8    8
 -0.4164910103379142   14   14    9    9
 -0.4041751541842965   14   14   10   10
 -0.4039675153244905   14   14   11   11
 -0.4001993149916262   14   14   12   12
 -0.3986746707340362   14   14   13   13
 -0.3913224499694543   14   14   14   14
 -0.4960666733047087   15   15    1    1
 -0.4939092556662876   15   15    2    2
 -0.4905452827173661   15   15    3    3
 -0.4897176558395854   15   15    4    4
 -0.4874427123821182   15   15    5    5
 -0.4398222370759198   15   15    6    6
 -0.4345743960842336   15   15    7    7
 -0.4341317114436314   15   15    8    8
 -0.4112408797991491   15   15    9    9
 -0.3990802727407056   15   15   10   10
 -0.3988752512990235   15   15   11   11
 -0.395154551495949   15   15   12   12
 -0.3936491263359598   15   15   13   13
 -0.3863895849277283   15   15   14   14
 -0.3815189017452895   15   15   15   15
 -0.4956879029462963   16   16    1    1
 -0.493532132598242   16   16    2    2
 -0.4901707282017109   16   16    3    3
 -0.4893437332561804   16   16    4    4
 -0.4870705268255993   16   16    5    5
 -0.4394864120037271   16   16    6    6
 -0.4342425779867489   16   16    7    7
 -0.4338002313567992   16   16    8    8
 -0.4109268779445241   16   16    9    9
 -0.3987755560845064   16   16   10   10
 -0.3985706911863882   16   16   11   11
 -0.3948528323135228   16   16   12   12
 -0.3933485566168177   16   16   13   13
 -0.3860945582116724   16   16   14   14
 -0.3812275940261226   16   16   15   15
 -0.3809365087341718   16   16   16   16
 -0.49535661403518   17   17    1    1
 -0.4932022844784117   17   17    2    2
 -0.4898431266487139   17   17    3    3
 -0.4890166844184169   17   17    4    4
 -0.4867449972665566   17   17    5    5
 -0.4391926848943549   17   17    6    6
 -0.4339523555504809   17   17    7    7
 -0.4335103045592437   17   17    8    8
 -0.4106522383635832   17   17    9    9
 -0.3985090377390519   17   17   10   10
 -0.3983043097606943   17   17   11   11
 -0.3945889356880638   17   17   12   12
 -0.3930856653615818   17   17   13   13
 -0.3858365151062877   17   17   14   14
 -0.3809728037160066   17   17   15   15
 -0.3806819129685037   17   17   16   16
 -0.3804274873598104   17   17   17   17
 -0.4921398548057385   18   18    1    1
 -0.4899995150883882   18   18    2    2
 -0.4866621710422266   18   18    3    3
 -0.4858410955832547   18   18    4    4
 -0.4835841603705128   18   18    5    5
 -0.4363406443994706   18   18    6    6
 -0.431134344837989   18   18    7    7
 -0.4306951644485882   18   18    8    8
 -0.4079855345376541   18   18    9    9
 -0.3959211897345193   18   18   10   10
 -0.3957177912238528   18   18   11   11
 -0.3920265441407493   18   18   12   12
 -0.3905330357888933   18   18   13   13
 -0.3833309602477115   18   18   14   14
 -0.3784988329486905   18   18   15   15
 -0.3782098311948344   18   18   16   16
 -0.3779570577815531   18   18   17   17
 -0.3755026707409774   18   18   18   18
 -0.4918453076971005   19   19    1    1
 -0.4897062489791837   19   19    2    2
 -0.4863709023429652   19   19    3    3
 -0.4855503183000004   19   19    4    4
 -0.4832947338694291   19   19    5    5
 -0.4360794932776216   19   19    6    6
 -0.4308763097012965   19   19    7    7
 -0.4304373921626131   19   19    8    8
 -0.4077413540300387   19   19    9    9
 -0.395684229771724   19   19   10   10
 -0.395480952995647   19   19   11   11
 -0.3917919151344649   19   19   12   12
 -0.3902993006516229   19   19   13   13
 -0.3831015355732214   19   19   14   14
 -0.3782723003161893   19   19   15   15
 -0.3779834715307083   19   19   16   16
 -0.3777308494030367   19   19   17   17
 -0.3752779313201144   19   19   18   18
 -0.3750533264064367   19   19   19   19
 -0.4881225016570643   20   20    1    1
 -0.4859996336002974   20   20    2    2
 -0.4826895323987889   20   20    3    3
 -0.4818751594046716   20   20    4    4
 -0.4796366476252174   20   20    5    5
 -0.4327787819643206   20   20    6    6
 -0.4276149815902792   20   20    7    7
 -0.4271793862442416   20   20    8    8
 -0.404655135758154   20   20    9    9
 -0.3926892725819557   20   20   10   10
 -0.3924875344197435   20   20   11   11
 -0.38882641910294   20   20   12   12
 -0.3873451023068405   20   20   13   13
 -0.3802018175353349   20   20   14   14
 -0.3754091350437807   20   20   15   15
 -0.3751224924203516   20   20   16   16
 -0.3748717824044111   20   20   17   17
 -0.3724374306026181   20   20   18   18
 -0.3722145257367322   20   20   19   19
 -0.369397212116135   20   20   20   20
 -0.4880478253616513   21   21    1    1
 -0.4859252820756572   21   21    2    2
 -0.4826156872759113   21   21    3    3
 -0.4818014388701055   21   21    4    4
 -0.4795632695533863   21   21    5    5
 -0.4327125725270159   21   21    6    6
 -0.4275495621462261   21   21    7    7
 -0.4271140334405227   21   21    8    8
 -0.4045932288672492   21   21    9    9
 -0.3926291963100664   21   21   10   10
 -0.3924274890111284   21   21   11   11
 -0.3887669337966106   21   21   12   12
 -0.3872858436224151   21   21   13   13
 -0.3801436516791278   21   21   14   14
 -0.3753517024046908   21   21   15   15
 -0.3750651036337971   21   21   16   16
 -0.3748144319731775   21   21   17   17
 -0.3723804525950563   21   21   18   18
 -0.3721575818306706   21   21   19   19
 -0.3693406992218449   21   21   20   20
 -0.3692841949732813   21   21   21   21
 -0.4874232072874499   22   22    1    1
 -0.4853033804952724   22   22    2    2
 -0.4819980214130581   22   22    3    3
 -0.481184815106499   22   22    4    4
 -0.478949510265218   22   22    5    5
 -0.4321587741497068   22   22    6    6
 -0.4270023715426505   22   22    7    7
 -0.4265674002394952   22   22    8    8
 -0.4040754184595035   22   22    9    9
 -0.3921266978258396   22   22   10   10
 -0.3919252486778821   22   22   11   11
 -0.3882693783504385   22   22   12   12
 -0.3867901837193521   22   22   13   13
 -0.3796571325650314   22   22   14   14
 -0.3748713161693246   22   22   15   15
 -0.3745850841960335   22   22   16   16
 -0.3743347333524359   22   22   17   17
 -0.3719038690532737   22   22   18   18
 -0.371681283525499   22   22   19   19
 -0.3688680060465375   22   22   20   20
 -0.3688115741137861   22   22   21   21
 -0.3683395581284769   22   22   22   22
 -0.4866857764766142   23   23    1    1
 -0.4845691568062289   23   23    2    2
 -0.4812687984576515   23   23    3    3
 -0.480456822464662   23   23    4    4
 -0.478224899453866   23   23    5    5
 -0.431504953834083   23   23    6    6
 -0.4263563524357066   23   23    7    7
 -0.4259220392079897   23   23    8    8
 -0.4034640859274894   23   23    9    9
 -0.3915334427152811   23   23   10   10
 -0.3913322983431453   23   23   11   11
 -0.3876819590437273   23   23   12   12
 -0.3862050023112061   23   23   13   13
 -0.3790827428705703   23   23   14   14
 -0.3743041670173991   23   23   15   15
 -0.3740183680892996   23   23   16   16
 -0.3737683960057258   23   23   17   17
 -0.3713412094022587   23   23   18   18
 -0.371118960627892   23   23   19   19
 -0.3683099394039906   23   23   20   20
 -0.3682535928480644   23   23   21   21
 -0.3677822909837194   23   23   22   22
 -0.3672258669378466   23   23   23   23
 -0.486042228871048   24   24    1    1
 -0.4839284080199145   24   24    2    2
 -0.4806324137555479   24   24    3    3
 -0.4798215114434246   24   24    4    4
 -0.477592539718199   24   24    5    5
 -0.4309343721708171   24   24    6    6
 -0.4257925787998418   24   24    7    7
 -0.425358839867186   24   24    8    8
 -0.4029305828768963   24   24    9    9
 -0.3910157156278313   24   24   10   10
 -0.39081483723014   24   24   11   11
 -0.3871693247969038   24   24   12   12
 -0.3856943210533843   24   24   13   13
 -0.3785814794203583   24   24   14   14
 -0.3738092223075262   24   24   15   15
 -0.373523801293113   24   24   16   16
 -0.3732741597491678   24   24   17   17
 -0.3708501826295247   24   24   18   18
 -0.3706282277360838   24   24   19   19
 -0.3678229208982812   24   24   20   20
 -0.3677666488497536   24   24   21   21
 -0.3672959701907723   24   24   22   22
 -0.366740281907849   24   24   23   23
 -0.3662553389699331   24   24   24   24
 -0.4856071086031355   25   25    1    1
 -0.4834951801108145   25   25    2    2
 -0.4802021365240273   25   25    3    3
 -0.479391960157121   25   25    4    4
 -0.4771649838773868   25   25    5    5
 -0.4305485861869384   25   25    6    6
 -0.4254113959108718   25   25    7    7
 -0.4249780452749304   25   25    8    8
 -0.4025698667646796   25   25    9    9
 -0.3906656660789739   25   25   10   10
 -0.3904649675139329   25   25   11   11
 -0.3868227186579178   25   25   12   12
 -0.3853490353840735   25   25   13   13
 -0.378242561390263   25   25   14   14
 -0.3734745765518757   25   25   15   15
 -0.3731894110553186   25   25   16   16
 -0.3729399929983238   25   25   17   17
 -0.3705181858991255   25   25   18   18
 -0.3702964297066759   25   25   19   19
 -0.3674936342676579   25   25   20   20
 -0.3674374125956354   25   25   21   21
 -0.3669671553029716   25   25   22   22
 -0.3664119644896512   25   25   23   23
 -0.3659274556878834   25   25   24   24
 -0.3655998659372453   25   25   25   25
 -0.4853662858763735   26   26    1    1
 -0.4832554047335853   26   26    2    2
 -0.4799639942360217   26   26    3    3
 -0.479154219652529   26   26    4    4
 -0.4769283477769327   26   26    5    5
 -0.4303350681335736   26   26    6    6
 -0.4252004254976636   26   26    7    7
 -0.4247672897693707   26   26    8    8
 -0.4023702239437469   26   26    9    9
 -0.3904719268002635   26   26   10   10
 -0.3902713277658408   26   26   11   11
 -0.3866308851772495   26   26   12   12
 -0.3851579327337783   26   26   13   13
 -0.3780549829891284   26   26   14   14
 -0.3732893626941953   26   26   15   15
 -0.373004338617175   26   26   16   16
 -0.3727550442518139   26   26   17   17
 -0.3703344381774339   26   26   18   18
 -0.3701127919585205   26   26   19   19
 -0.3673113864844108   26   26   20   20
 -0.3672551926938919   26   26   21   21
 -0.36678516861166   26   26   22   22
 -0.3662302531290815   26   26   23   23
 -0.3657459846053672   26   26   24   24
 -0.3654185573133414   26   26   25   25
 -0.3652373386041781   26   26   26   26
 -0.4839657267836877   27   27    1    1
 -0.4818609367392392   27   27    2    2
 -0.4785790238418062   27   27    3    3
 -0.4777715859207249   27   27    4    4
 -0.4755521369574429   27   27    5    5
 -0.4290933055511399   27   27    6    6
 -0.423973479293377   27   27    7    7
 -0.4235415934091716   27   27    8    8
 -0.4012091559170443   27   27    9    9
 -0.3893451921599882   27   27   10   10
 -0.3891451719684101   27   27   11   11
 -0.3855152341369831   27   27   12   12
 -0.384046532003016   27   27   13   13
 -0.3769640783272922   27   27   14   14
 -0.3722122095701782   27   27   15   15
 -0.3719280079504945   27   27   16   16
 -0.3716794329418343   27   27   17   17
 -0.3692658116992111   27   27   18   18
 -0.3690448050562969   27   27   19   19
 -0.3662514832378164   27   27   20   20
 -0.3661954515984946   27   27   21   21
 -0.3657267838043307   27   27   22   22
 -0.3651734695700206   27   27   23   23
 -0.3646905984377278   27   27   24   24
 -0.3643641159605447   27   27   25   25
 -0.3641834201709131   27   27   26   26
 -0.3631325428945797   27   27   27   27
 -0.4829584472362693   28   28    1    1
 -0.4808580378986478   28   28    2    2
 -0.4775829556579226   28   28    3    3
 -0.4767771982601897   28   28    4    4
 -0.4745623686437407   28   28    5    5
 -0.4282002321645425   28   28    6    6
 -0.4230910618189452   28   28    7    7
 -0.42266007482033   28   28    8    8
 -0.4003741179078902   28   28    9    9
 -0.3885348466597918   28   28   10   10
 -0.3883352427709328   28   28   11   11
 -0.3847128599417171   28   28   12   12
 -0.3832472146226005   28   28   13   13
 -0.3761795016823013   28   28   14   14
 -0.3714375230061294   28   28   15   15
 -0.3711539128962634   28   28   16   16
 -0.3709058552476318   28   28   17   17
 -0.3684972574832805   28   28   18   18
 -0.3682767108222596   28   28   19   19
 -0.365489202754178   28   28   20   20
 -0.3654332877337016   28   28   21   21
 -0.3649655953794449   28   28   22   22
 -0.3644134327599716   28   28   23   23
 -0.363931566629043   28   28   24   24
 -0.3636057636609732   28   28   25   25
 -0.3634254439541158   28   28   26   26
 -0.3623767538723062   28   28   27   27
 -0.3616225378763487   28   28   28   28
 -0.4817615922510806   29   29    1    1
 -0.4796663880929132   29   29    2    2
 -0.4763994220752897   29   29    3    3
 -0.4755956614844537   29   29    4    4
 -0.4733863206007993   29   29    5    5
 -0.4271390775549527   29   29    6    6
 -0.4220425686216017   29   29    7    7
 -0.4216126496836878   29   29    8    8
 -0.3993819212464575   29   29    9    9
 -0.3875719897705389   29   29   10   10
 -0.3873728805348139   29   29   11   11
 -0.3837594745999298   29   29   12   12
 -0.3822974614046878   29   29   13   13
 -0.3752472634856392   29   29   14   14
 -0.3705170362569277   29   29   15   15
 -0.370234128982214   29   29   16   16
 -0.3699866860635557   29   29   17   17
 -0.3675840572231525   29   29   18   18
 -0.3673640571150953   29   29   19   19
 -0.3645834569765604   29   29   20   20
 -0.3645276805232245   29   29   21   21
 -0.3640611471919208   29   29   22   22
 -0.3635103529274015   29   29   23   23
 -0.3630296809445083   29   29   24   24
 -0.3627046853728279   29   29   25   25
 -0.3625248125295492   29   29   26   26
 -0.3614787212840566   29   29   27   27
 -0.3607263743664429   29   29   28   28
 -0.3598324317054953   29   29   29   29
 -0.4809567316550382   30   30    1    1
 -0.4788650278740173   30   30    2    2
 -0.4756035198510918   30   30    3    3
 -0.4748011020722164   30   30    4    4
 -0.4725954522495537   30   30    5    5
 -0.426425472697107   30   30    6    6
 -0.4213374783055622   30   30    7    7
 -0.4209082776167121   30   30    8    8
 -0.398714689203984   30   30    9    9
 -0.386924488127167   30   30   10   10
 -0.3867257115355978   30   30   11   11
 -0.3831183423792806   30   30   12   12
 -0.3816587717133533   30   30   13   13
 -0.3746203522892919   30   30   14   14
 -0.3698980276696051   30   30   15   15
 -0.3696155930372138   30   30   16   16
 -0.3693685635119397   30   30   17   17
 -0.3669699486512967   30   30   18   18
 -0.3667503160889736   30   30   19   19
 -0.3639743613923354   30   30   20   20
 -0.3639186781225787   30   30   21   21
 -0.3634529242106002   30   30   22   22
 -0.362903050136912   30   30   23   23
 -0.3624231811942464   30   30   24   24
 -0.3620987285801901   30   30   25   25
 -0.3619191562435649   30   30   26   26
 -0.3608748126625538   30   30   27   27
 -0.3601237226620508   30   30   28   28
 -0.3592312734767859   30   30   29   29
 -0.3586311195800492   30   30   30   30
 -0.4807188728466559   31   31    1    1
 -0.4786282035249452   31   31    2    2
 -0.4753683084920473   31   31    3    3
 -0.4745662875516485   31   31    4    4
 -0.4723617285407034   31   31    5    5
 -0.4262145825106851   31   31    6    6
 -0.4211291044042931   31   31    7    7
 -0.4207001159781222   31   31    8    8
 -0.3985175034809934   31   31    9    9
 -0.3867331332887324   31   31   10   10
 -0.3865344550028113   31   31   11   11
 -0.3829288698833366   31   31   12   12
 -0.38147002105311   31   31   13   13
 -0.3744350825036197   31   31   14   14
 -0.3697150933258406   31   31   15   15
 -0.3694327983724695   31   31   16   16
 -0.3691858910164981   31   31   17   17
 -0.3667884623990968   31   31   18   18
 -0.3665689384568141   31   31   19   19
 -0.3637943566181334   31   31   20   20
 -0.3637387008867295   31   31   21   21
 -0.3632731773149526   31   31   22   22
 -0.3627235751833817   31   31   23   23
 -0.3622439435615546   31   31   24   24
 -0.3619196514066563   31   31   25   25
 -0.3617401678781487   31   31   26   26
 -0.3606963407808531   31   31   27   27
 -0.3599456222344971   31   31   28   28
 -0.359053614413051   31   31   29   29
 -0.3584537573244912   31   31   30   30
 -0.3582764827840477   31   31   31   31
 -0.4806226919818128   32   32    1    1
 -0.4785324409552738   32   32    2    2
 -0.4752731981529025   32   32    3    3
 -0.4744713376785724   32   32    4    4
 -0.4722672197495241   32   32    5    5
 -0.4261293067092342   32   32    6    6
 -0.4210448460908379   32   32    7    7
 -0.4206159434954511   32   32    8    8
 -0.3984377692323401   32   32    9    9
 -0.3866557568233507   32   32   10   10
 -0.3864571182884159   32   32   11   11
 -0.3828522545641571   32   32   12   12
 -0.3813936976162552   32   32   13   13
 -0.3743601665972616   32   32   14   14
 -0.3696411217814927   32   32   15   15
 -0.3693588833088931   32   32   16   16
 -0.3691120253534432   32   32   17   17
 -0.3667150764067411   32   32   18   18
 -0.3664955963861843   32   32   19   19
 -0.3637215696779466   32   32   20   20
 -0.3636659250819832   32   32   21   21
 -0.3632004946508385   32   32   22   22
 -0.3626510024820989   32   32   23   23
 -0.3621714668236026   32   32   24   24
 -0.3618472395521563   32   32   25   25
 -0.3616677919342026   32   32   26   26
 -0.3606241736828638   32   32   27   27
 -0.3598736053381393   32   32   28   28
 -0.3589817759870813   32   32   29   29
 -0.3583820389162217   32   32   30   30
 -0.3582047998443639   32   32   31   31
 -0.3581331312467989   32   32   32   32
 -0.4801605918799389   33   33    1    1
 -0.4780723505487979   33   33    2    2
 -0.4748162413821373   33   33    3    3
 -0.474015151865594   33   33    4    4
 -0.4718131531105601   33   33    5    5
 -0.4257195998865498   33   33    6    6
 -0.4206400277800963   33   33    7    7
 -0.4202115375579419   33   33    8    8
 -0.3980546867503343   33   33    9    9
 -0.3862840022899109   33   33   10   10
 -0.3860855547382334   33   33   11   11
 -0.3824841569508145   33   33   12   12
 -0.3810270023489222   33   33   13   13
 -0.3740002337975662   33   33   14   14
 -0.3692857261605999   33   33   15   15
 -0.3690037590493594   33   33   16   16
 -0.3687571384382719   33   33   17   17
 -0.3663624940651385   33   33   18   18
 -0.3661432250661201   33   33   19   19
 -0.3633718654771131   33   33   20   20
 -0.3633162743812733   33   33   21   21
 -0.3628512914434601   33   33   22   22
 -0.3623023275901568   33   33   23   23
 -0.3618232529866217   33   33   24   24
 -0.3614993374471382   33   33   25   25
 -0.3613200623611185   33   33   26   26
 -0.3602774475083048   33   33   27   27
 -0.3595276008059713   33   33   28   28
 -0.35863662891429   33   33   29   29
 -0.3580374684673938   33   33   30   30
 -0.3578603998040386   33   33   31   31
 -0.357788800113054   33   33   32   32
 -0.3574448000403569   33   33   33   33
 -0.477717393314691   34   34    1    1
 -0.475639777570719   34   34    2    2
 -0.4724002364468733   34   34    3    3
 -0.4716032231098219   34   34    4    4
 -0.469412428773247   34   34    5    5
 -0.4235534131289728   34   34    6    6
 -0.418499687382034   34   34    7    7
 -0.4180733774443796   34   34    8    8
 -0.3960292672219408   34   34    9    9
 -0.3843184754721481   34   34   10   10
 -0.3841210376800838   34   34   11   11
 -0.3805379648657174   34   34   12   12
 -0.3790882246957733   34   34   13   13
 -0.3720972104131626   34   34   14   14
 -0.3674066915801283   34   34   15   15
 -0.3671261592006282   34   34   16   16
 -0.3668807934678738   34   34   17   17
 -0.3644983337508652   34   34   18   18
 -0.3642801804571189   34   34   19   19
 -0.3615229223622498   34   34   20   20
 -0.3614676141302849   34   34   21   21
 -0.3610049971626612   34   34   22   22
 -0.3604588265991893   34   34   23   23
 -0.3599821896683908   34   34   24   24
 -0.3596599223066102   34   34   25   25
 -0.3594815594250494   34   34   26   26
 -0.3584442497038013   34   34   27   27
 -0.3576982184424228   34   34   28   28
 -0.356811780078241   34   34   29   29
 -0.3562156683362342   34   34   30   30
 -0.3560395006504094   34   34   31   31
 -0.3559682652797487   34   34   32   32
 -0.3556260155807771   34   34   33   33
 -0.3538164856324113   34   34   34   34
 -0.4736139410036871   35   35    1    1
 -0.4715541713696649   35   35    2    2
 -0.4683424569540305   35   35    3    3
 -0.4675522897278087   35   35    4    4
 -0.4653803136721027   35   35    5    5
 -0.4199152135233897   35   35    6    6
 -0.4149048977985387   35   35    7    7
 -0.4144822497382271   35   35    8    8
 -0.3926274919578434   35   35    9    9
 -0.3810172924748215   35   35   10   10
 -0.3808215506154895   35   35   11   11
 -0.3772692553458104   35   35   12   12
 -0.3758319680187687   35   35   13   13
 -0.3689010044986291   35   35   14   14
 -0.3642507758468078   35   35   15   15
 -0.3639726531581773   35   35   16   16
 -0.3637293950451102   35   35   17   17
 -0.3613673999583797   35   35   18   18
 -0.3611511205374501   35   35   19   19
 -0.3584175464810099   35   35   20   20
 -0.3583627133305377   35   35   21   21
 -0.3579040701069966   35   35   22   22
 -0.3573625909884925   35   35   23   23
 -0.3568900482291489   35   35   24   24
 -0.3565705490494964   35   35   25   25
 -0.3563937182527808   35   35   26   26
 -0.3553653187178319   35   35   27   27
 -0.3546256956462043   35   35   28   28
 -0.3537468715276098   35   35   29   29
 -0.3531558802106485   35   35   30   30
 -0.3529812257535811   35   35   31   31
 -0.3529106022738635   35   35   32   32
 -0.3525712923994364   35   35   33   33
 -0.3507773057826562   35   35   34   34
 -0.3477642315965268   35   35   35   35
 -0.4704902715166384   36   36    1    1
 -0.4684440868703014   36   36    2    2
 -0.4652535549694807   36   36    3    3
 -0.4644685992056768   36   36    4    4
 -0.462310948182966   36   36    5    5
 -0.417145708181442   36   36    6    6
 -0.4121684374516709   36   36    7    7
 -0.4117485769208964   36   36    8    8
 -0.3900379598300387   36   36    9    9
 -0.3785043341610959   36   36   10   10
 -0.3783098832960113   36   36   11   11
 -0.3747810168053065   36   36   12   12
 -0.3733532089512678   36   36   13   13
 -0.3664679578508636   36   36   14   14
 -0.3618483992788053   36   36   15   15
 -0.3615721109182656   36   36   16   16
 -0.3613304571877546   36   36   17   17
 -0.3589840403839719   36   36   18   18
 -0.3587691874105544   36   36   19   19
 -0.3560536423459394   36   36   20   20
 -0.3559991708415764   36   36   21   21
 -0.3555435525497757   36   36   22   22
 -0.3550056446981916   36   36   23   23
 -0.3545362185434723   36   36   24   24
 -0.3542188265860787   36   36   25   25
 -0.3540431620577438   36   36   26   26
 -0.3530215452206206   36   36   27   27
 -0.3522868002529099   36   36   28   28
 -0.3514137723236715   36   36   29   29
 -0.3508266788259762   36   36   30   30
 -0.350653176283477   36   36   31   31
 -0.3505830185932761   36   36   32   32
 -0.3502459466004011   36   36   33   33
 -0.3484637920281826   36   36   34   34
 -0.3454705902467325   36   36   35   35
 -0.3431920763602123   36   36   36   36
 -0.4702216191982383   37   37    1    1
 -0.4681766029336563   37   37    2    2
 -0.4649878928426454   37   37    3    3
 -0.4642033852925423   37   37    4    4
 -0.4620469662994495   37   37    5    5
 -0.4169075158778003   37   37    6    6
 -0.4119330871947234   37   37    7    7
 -0.41151346640643   37   37    8    8
 -0.3898152461874492   37   37    9    9
 -0.3782882062769442   37   37   10   10
 -0.3780938664442844   37   37   11   11
 -0.374567014954147   37   37   12   12
 -0.3731400223855955   37   37   13   13
 -0.3662587027983019   37   37   14   14
 -0.3616417820174914   37   37   15   15
 -0.3613656514189993   37   37   16   16
 -0.3611241356739874   37   37   17   17
 -0.3587790586860361   37   37   18   18
 -0.3585643283947502   37   37   19   19
 -0.3558503339200655   37   37   20   20
 -0.3557958935192063   37   37   21   21
 -0.3553405353877485   37   37   22   22
 -0.3548029346842611   37   37   23   23
 -0.3543337765742441   37   37   24   24
 -0.3540165658492593   37   37   25   25
 -0.3538410016262562   37   37   26   26
 -0.3528199681375006   37   37   27   27
 -0.3520856427128727   37   37   28   28
 -0.3512131132869859   37   37   29   29
 -0.3506263550226394   37   37   30   30
 -0.3504529515509671   37   37   31   31
 -0.3503828339211612   37   37   32   32
 -0.3500459543980945   37   37   33   33
 -0.3482648174451267   37   37   34   34
 -0.345273324796993   37   37   35   35
 -0.3429961119533958   37   37   36   36
 -0.3428002594432441   37   37   37   37
 -0.4692269999671871   38   38    1    1
 -0.4671863093491121   38   38    2    2
 -0.4640043440615073   38   38    3    3
 -0.4632214959125555   38   38    4    4
 -0.461069638206552   38   38    5    5
 -0.4160256673707733   38   38    6    6
 -0.411061760667609   38   38    7    7
 -0.4106430274669737   38   38    8    8
 -0.3889907036215927   38   38    9    9
 -0.3774880458643192   38   38   10   10
 -0.3772941171019443   38   38   11   11
 -0.3737747256565472   38   38   12   12
 -0.3723507514822875   38   38   13   13
 -0.365483987356753   38   38   14   14
 -0.3608768323502271   38   38   15   15
 -0.3606012858269717   38   38   16   16
 -0.3603602809393828   38   38   17   17
 -0.358020164290504   38   38   18   18
 -0.3578058881996812   38   38   19   19
 -0.3550976344034071   38   38   20   20
 -0.3550433091556319   38   38   21   21
 -0.3545889142039517   38   38   22   22
 -0.3540524506408604   38   38   23   23
 -0.3535842849005252   38   38   24   24
 -0.3532677451440253   38   38   25   25