 &FCI NORB=  69,NELEC=90,MS2=0,
  ORBSYM=1,1,1,1,1,1,1,1,1,1,1,1,1,1,1,1,1,1,1,1,1,1,1,1,1,1,1,1,1,1,1,1,1,1,1,1,1,1,1,1,1,1,1,1,1,1,1,1,1,1,1,1,1,1,1,1,1,1,1,1,1,1,1,1,1,1,1,1,1,
  ISYM=1,
 &END
 -0.2670284519031298    1    1    1    1
 -0.2681144813212759    2    2    1    1
 -0.2692049277215401    2    2    2    2
 -0.2683521848339373    3    3    1    1
 -0.2694435979963787    3    3    2    2
 -0.2696824798702418    3    3    3    3
 -0.2697233114686609    4    4    1    1
 -0.2708203011299761    4    4    2    2
 -0.2710604035539906    4    4    3    3
 -0.2724453676419923    4    4    4    4
 -0.2713266256866101    5    5    1    1
 -0.2724301361751811    5    5    2    2
 -0.2726716658381987    5    5    3    3
 -0.2740648625576387    5    5    4    4
 -0.2756939842245289    5    5    5    5
 -0.2763265210520327    6    6    1    1
 -0.2774503665776224    6    6    2    2
 -0.2776963470498434    6    6    3    3
 -0.2791152170249141    6    6    4    4
 -0.280774359475247    6    6    5    5
 -0.2859483537897278    6    6    6    6
 -0.2768419102667682    7    7    1    1
 -0.2779678519279757    7    7    2    2
 -0.2782142911896098    7    7    3    3
 -0.2796358075638734    7    7    4    4
 -0.2812980445565664    7    7    5    5
 -0.2864816891241486    7    7    6    6
 -0.2870160192066599    7    7    7    7
 -0.278205580924703    8    8    1    1
 -0.2793370687606369    8    8    2    2
 -0.2795847219352574    8    8    3    3
 -0.2810132404291331    8    8    4    4
 -0.2826836652854746    8    8    5    5
 -0.2878928435014526    8    8    6    6
 -0.288429805592443    8    8    7    7
 -0.2898505560213835    8    8    8    8
 -0.2793268454123307    9    9    1    1
 -0.28046289353467    9    9    2    2
 -0.2807115448370384    9    9    3    3
 -0.2821458207533634    9    9    4    4
 -0.2838229779982661    9    9    5    5
 -0.2890531509999126    9    9    6    6
 -0.2895922772334117    9    9    7    7
 -0.2910187537768192    9    9    8    8
 -0.292191659772303    9    9    9    9
 -0.279523684692416   10   10    1    1
 -0.2806605333783181   10   10    2    2
 -0.2809093599031693   10   10    3    3
 -0.2823446465416767   10   10    4    4
 -0.2840229856651926   10   10    5    5
 -0.2892568443257912   10   10    6    6
 -0.2897963504770155   10   10    7    7
 -0.2912238322464529   10   10    8    8
 -0.2923975647789329   10   10    9    9
 -0.2926036148850902   10   10   10   10
 -0.2797129612255675   11   11    1    1
 -0.280850579716641   11   11    2    2
 -0.2810995747317653   11   11    3    3
 -0.2825358332595754   11   11    4    4
 -0.2842153088528366   11   11    5    5
 -0.2894527115659665   11   11    6    6
 -0.289992583038126   11   11    7    7
 -0.2914210314118809   11   11    8    8
 -0.2925955587250423   11   11    9    9
 -0.2928017483558692   11   11   10   10
 -0.2930000159906511   11   11   11   11
 -0.279759484953566   12   12    1    1
 -0.2808972926609454   12   12    2    2
 -0.2811463290905837   12   12    3    3
 -0.2825828265065053   12   12    4    4
 -0.2842625814413649   12   12    5    5
 -0.2895008552742963   12   12    6    6
 -0.290040816541485   12   12    7    7
 -0.2914695025043145   12   12    8    8
 -0.2926442251727036   12   12    9    9
 -0.2928504490983671   12   12   10   10
 -0.2930487497103463   12   12   11   11
 -0.2930974915357593   12   12   12   12
 -0.2801629262608475   13   13    1    1
 -0.2813023748013482   13   13    2    2
 -0.2815517703665588   13   13    3    3
 -0.2829903393561949   13   13    4    4
 -0.2846725166665708   13   13    5    5
 -0.2899183446170808   13   13    6    6
 -0.2904590845627102   13   13    7    7
 -0.2918898308343533   13   13    8    8
 -0.2930662475709492   13   13    9    9
 -0.2932727688922495   13   13   10   10
 -0.2934713554736504   13   13   11   11
 -0.2935201675896767   13   13   12   12
 -0.2939434531849641   13   13   13   13
 -0.2810780338222054   14   14    1    1
 -0.2822212041898197   14   14    2    2
 -0.2824714143659088   14   14    3    3
 -0.2839146822119479   14   14    4    4
 -0.2856023540864935   14   14    5    5
 -0.2908653166982063   14   14    6    6
 -0.2914078228847141   14   14    7    7
 -0.2928432424610983   14   14    8    8
 -0.2940235017755304   14   14    9    9
 -0.2942306976658224   14   14   10   10
 -0.2944299328986515   14   14   11   11
 -0.2944789044516777   14   14   12   12
 -0.2949035726419217   14   14   13   13
 -0.2958668281761134   14   14   14   14
 -0.2813946344684178   15   15    1    1
 -0.2825390924801507   15   15    2    2
 -0.2827895844879517   15   15    3    3
 -0.2842344780018756   15   15    4    4
 -0.28592405083609   15   15    5    5
 -0.2911929415430765   15   15    6    6
 -0.2917360587976457   15   15    7    7
 -0.2931730952017815   15   15    8    8
 -0.2943546839365763   15   15    9    9
 -0.2945621132081535   15   15   10   10
 -0.2947615728555432   15   15   11   11
 -0.2948105995691421   15   15   12   12
 -0.2952357460970976   15   15   13   13
 -0.2962000866229567   15   15   14   14
 -0.2965337204454144   15   15   15   15
 -0.2814788160164403   16   16    1    1
 -0.2826236164023171   16   16    2    2
 -0.282874183346888   16   16    3    3
 -0.284319509112738   16   16    4    4
 -0.2860095873967344   16   16    5    5
 -0.2912800543362491   16   16    6    6
 -0.2918233340688674   16   16    7    7
 -0.2932608003744095   16   16    8    8
 -0.2944427425913131   16   16    9    9
 -0.2946502339170841   16   16   10   10
 -0.2948497532344882   16   16   11   11
 -0.2948987946148368   16   16   12   12
 -0.2953240683289162   16   16   13   13
 -0.2962886973452735   16   16   14   14
 -0.2966224309770673   16   16   15   15
 -0.2967111680472144   16   16   16   16
 -0.2822916277447731   17   17    1    1
 -0.2834397339111467   17   17    2    2
 -0.2836910244048435   17   17    3    3
 -0.2851405237626901   17   17    4    4
 -0.2868354823977924   17   17    5    5
 -0.2921211685904035   17   17    6    6
 -0.2926660171236324   17   17    7    7
 -0.2941076343258166   17   17    8    8
 -0.2952929895757496   17   17    9    9
 -0.2955010800634237   17   17   10   10
 -0.2957011755223773   17   17   11   11
 -0.2957503585169677   17   17   12   12
 -0.2961768602718193   17   17   13   13
 -0.297144274797186   17   17   14   14
 -0.2974789721342203   17   17   15   15
 -0.2975679654457867   17   17   16   16
 -0.2984272369736177   17   17   17   17
 -0.2841552161950907   18   18    1    1
 -0.2853109017481025   18   18    2    2
 -0.2855638511718407   18   18    3    3
 -0.2870229196064736   18   18    4    4
 -0.2887290677527966   18   18    5    5
 -0.2940496481568274   18   18    6    6
 -0.2945980935853728   18   18    7    7
 -0.2960492278291683   18   18    8    8
 -0.2972424083708782   18   18    9    9
 -0.2974518725975915   18   18   10   10
 -0.2976532890152616   18   18   11   11
 -0.2977027966984069   18   18   12   12
 -0.2981321140654349   18   18   13   13
 -0.2991059151157954   18   18   14   14
 -0.2994428220050457   18   18   15   15
 -0.2995324028186537   18   18   16   16
 -0.3003973469500533   18   18   17   17
 -0.3023804628885405   18   18   18   18
 -0.2842692791508599   19   19    1    1
 -0.2854254286084654   19   19    2    2
 -0.2856784795688191   19   19    3    3
 -0.2871381336891929   19   19    4    4
 -0.2888449667017068   19   19    5    5
 -0.2941676828438579   19   19    6    6
 -0.2947163484242889   19   19    7    7
 -0.2961680651689559   19   19    8    8
 -0.2973617246661506   19   19    9    9
 -0.2975712729740543   19   19   10   10
 -0.2977727702424378   19   19   11   11
 -0.2978222977984988   19   19   12   12
 -0.2982517874981291   19   19   13   13
 -0.2992259794426904   19   19   14   14
 -0.2995630215699846   19   19   15   15
 -0.2996526383422933   19   19   16   16
 -0.3005179296715572   19   19   17   17
 -0.3025018416540819   19   19   18   18
 -0.3026232691423635   19   19   19   19
 -0.2848340797987652   20   20    1    1
 -0.2859925263528584   20   20    2    2
 -0.2862460800877181   20   20    3    3
 -0.2877086343230651   20   20    4    4
 -0.2894188585581348   20   20    5    5
 -0.2947521501431711   20   20    6    6
 -0.2953019058402556   20   20    7    7
 -0.2967565069295145   20   20    8    8
 -0.2979525380500497   20   20    9    9
 -0.2981625026991789   20   20   10   10
 -0.2983644003125736   20   20   11   11
 -0.2984140262724995   20   20   12   12
 -0.2988443693040879   20   20   13   13
 -0.2998204968227047   20   20   14   14
 -0.3001582086024229   20   20   15   15
 -0.3002480034298884   20   20   16   16
 -0.3011150139639319   20   20   17   17
 -0.3031028676835886   20   20   18   18
 -0.3032245364301738   20   20   19   19
 -0.3038269983463827   20   20   20   20
 -0.2849106827067661   21   21    1    1
 -0.2860694408119731   21   21    2    2
 -0.2863230627372454   21   21    3    3
 -0.2877860103100316   21   21    4    4
 -0.2894966944905888   21   21    5    5
 -0.2948314204041469   21   21    6    6
 -0.2953813239518157   21   21    7    7
 -0.2968363162396049   21   21    8    8
 -0.2980326690191984   21   21    9    9
 -0.2982426901359481   21   21   10   10
 -0.298444642047425   21   21   11   11
 -0.2984942813536923   21   21   12   12
 -0.2989247401211775   21   21   13   13
 -0.2999011301582631   21   21   14   14
 -0.3002389327617493   21   21   15   15
 -0.3003287517385193   21   21   16   16
 -0.3011959954452513   21   21   17   17
 -0.3031843837757092   21   21   18   18
 -0.3033060852437293   21   21   19   19
 -0.3039087091852645   21   21   20   20
 -0.3039904419993535   21   21   21   21
 -0.2893108343358372   22   22    1    1
 -0.2904874882648016   22   22    2    2
 -0.2907450271191165   22   22    3    3
 -0.2922305684082369   22   22    4    4
 -0.2939676723415124   22   22    5    5
 -0.2993847875944108   22   22    6    6
 -0.2999431838351864   22   22    7    7
 -0.3014206469781383   22   22    8    8
 -0.3026354761924589   22   22    9    9
 -0.3028487408687347   22   22   10   10
 -0.3030538117191852   22   22   11   11
 -0.3031042176533383   22   22   12   12
 -0.3035413244124994   22   22   13   13
 -0.3045327937866301   22   22   14   14
 -0.3048758134029075   22   22   15   15
 -0.3049670195411318   22   22   16   16
 -0.3058476569324133   22   22   17   17
 -0.3078667538697524   22   22   18   18
 -0.3079903348914196   22   22   19   19
 -0.3086022657381676   22   22   20   20
 -0.3086852608312685   22   22   21   21
 -0.3134525862976669   22   22   22   22
 -0.2898567674458665   23   23    1    1
 -0.2910356417352967   23   23    2    2
 -0.2912936665686038   23   23    3    3
 -0.2927820110924454   23   23    4    4
 -0.2945223929622521   23   23    5    5
 -0.2999497303783964   23   23    6    6
 -0.3005091803197604   23   23    7    7
 -0.3019894314538721   23   23    8    8
 -0.3032065530658924   23   23    9    9
 -0.3034202201752408   23   23   10   10
 -0.3036256779969135   23   23   11   11
 -0.3036761790476857   23   23   12   12
 -0.3041141106326884   23   23   13   13
 -0.3051074509217475   23   23   14   14
 -0.3054511178202685   23   23   15   15
 -0.3055424960655996   23   23   16   16
 -0.306424795230492   23   23   17   17
 -0.3084477022286364   23   23   18   18
 -0.3085715164492145   23   23   19   19
 -0.3091846020170122   23   23   20   20
 -0.3092677537228766   23   23   21   21
 -0.3140440751911855   23   23   22   22
 -0.314636680231536   23   23   23   23
 -0.2904286912858494   24   24    1    1
 -0.2916098916424485   24   24    2    2
 -0.291868425591188   24   24    3    3
 -0.2933597068058745   24   24    4    4
 -0.2951035226678932   24   24    5    5
 -0.3005415689030286   24   24    6    6
 -0.3011021227094552   24   24    7    7
 -0.3025852945651366   24   24    8    8
 -0.3038048177111014   24   24    9    9
 -0.3040189064125165   24   24   10   10
 -0.3042247696282995   24   24   11   11
 -0.3042753703239932   24   24   12   12
 -0.3047141660030654   24   24   13   13
 -0.3057094662773874   24   24   14   14
 -0.3060538112739014   24   24   15   15
 -0.3061453698199976   24   24   16   16
 -0.307029409872056   24   24   17   17
 -0.3090563083200068   24   24   18   18
 -0.3091803668416068   24   24   19   19
 -0.3097946621043005   24   24   20   20
 -0.3098779778789336   24   24   21   21
 -0.3146637236299294   24   24   22   22
 -0.3152574979545208   24   24   23   23
 -0.3158795406289158   24   24   24   24
 -0.2905417400454676   25   25    1    1
 -0.2917234001818309   25   25    2    2
 -0.2919820347643682   25   25    3    3
 -0.2934738964571433   25   25    4    4
 -0.2952183910958329   25   25    5    5
 -0.3006585540790724   25   25    6    6
 -0.3012193260798937   25   25    7    7
 -0.3027030752571125   25   25    8    8
 -0.303923073099907   25   25    9    9
 -0.3041372451349005   25   25   10   10
 -0.304343188482509   25   25   11   11
 -0.3043938088744175   25   25   12   12
 -0.3048327753537884   25   25   13   13
 -0.3058284630466571   25   25   14   14
 -0.3061729420787395   25   25   15   15
 -0.306264536263808   25   25   16   16
 -0.3071489204266045   25   25   17   17
 -0.3091766078405297   25   25   18   18
 -0.3093007146516494   25   25   19   19
 -0.309915249027487   25   25   20   20
 -0.3099985972326109   25   25   21   21
 -0.3147862058251139   25   25   22   22
 -0.3153802112751171   25   25   23   23
 -0.3160024960783199   25   25   24   24
 -0.316125499387875   25   25   25   25
 -0.2910469068813057   26   26    1    1
 -0.2922306215779261   26   26    2    2
 -0.2924897058501145   26   26    3    3
 -0.2939841614526346   26   26    4    4
 -0.2957316892556352   26   26    5    5
 -0.3011813110860622   26   26    6    6
 -0.3017430581048525   26   26    7    7
 -0.3032293870865322   26   26    8    8
 -0.3044515061476062   26   26    9    9
 -0.3046660505649268   26   26   10   10
 -0.3048723519875893   26   26   11   11
 -0.3049230603935064   26   26   12   12
 -0.3053627901067844   26   26   13   13
 -0.3063602090083985   26   26   14   14
 -0.3067052869884415   26   26   15   15
 -0.3067970404289224   26   26   16   16
 -0.3076829622762841   26   26   17   17
 -0.3097141752436626   26   26   18   18
 -0.3098384978401116   26   26   19   19
 -0.3104541007109137   26   26   20   20
 -0.3105375938341103   26   26   21   21
 -0.3153335266731864   26   26   22   22
 -0.3159285649243754   26   26   23   23
 -0.3165519316982616   26   26   24   24
 -0.3166751488744808   26   26   25   25
 -0.3172257540402668   26   26   26   26
 -0.2912350397008666   27   27    1    1
 -0.2924195195510693   27   27    2    2
 -0.2926787712954194   27   27    3    3
 -0.294174192914549   27   27    4    4
 -0.2959228503201156   27   27    5    5
 -0.3013759947879466   27   27    6    6
 -0.3019381049202008   27   27    7    7
 -0.3034253946654396   27   27    8    8
 -0.3046483037046902   27   27    9    9
 -0.3048629868035951   27   27   10   10
 -0.3050694215795673   27   27   11   11
 -0.3051201627634152   27   27   12   12
 -0.3055601767181295   27   27   13   13
 -0.3065582403516606   27   27   14   14
 -0.3069035413902272   27   27   15   15
 -0.3069953541401634   27   27   16   16
 -0.3078818486477083   27   27   17   17
 -0.3099143745918396   27   27   18   18
 -0.3100387775504572   27   27   19   19
 -0.3106547783471642   27   27   20   20
 -0.3107383254403441   27   27   21   21
 -0.3155373583720379   27   27   22   22
 -0.3161327812561548   27   27   23   23
 -0.3167565509745356   27   27   24   24
 -0.3168798477983794   27   27   25   25
 -0.3174308088755317   27   27   26   26
 -0.3176359962583118   27   27   27   27
 -0.2915328201156993   28   28    1    1
 -0.2927185110663985   28   28    2    2
 -0.2929780278890579   28   28    3    3
 -0.2944749785387278   28   28    4    4
 -0.2962254239019803   28   28    5    5
 -0.3016841440712222   28   28    6    6
 -0.3022468289467784   28   28    7    7
 -0.3037356394079234   28   28    8    8
 -0.304959798840538   28   28    9    9
 -0.3051747014474469   28   28   10   10
 -0.3053813472977228   28   28   11   11
 -0.3054321403631396   28   28   12   12
 -0.3058726042209222   28   28   13   13
 -0.3068716883491133   28   28   14   14
 -0.3072173424492024   28   28   15   15
 -0.3073092490753382   28   28   16   16
 -0.3081966500009518   28   28   17   17
 -0.3102312541511239   28   28   18   18
 -0.3103557843086001   28   28   19   19
 -0.3109724149504417   28   28   20   20
 -0.3110560474683978   28   28   21   21
 -0.315859987289107   28   28   22   22
 -0.3164560189779666   28   28   23   23
 -0.3170804264850066   28   28   24   24
 -0.3172038493767143   28   28   25   25
 -0.3177553737975435   28   28   26   26
 -0.3179607709791997   28   28   27   27
 -0.3182858777739725   28   28   28   28
 -0.2921169769187088   29   29    1    1
 -0.2933050436891693   29   29    2    2
 -0.2935650805168059   29   29    3    3
 -0.2950650306706326   29   29    4    4
 -0.296818983476261   29   29    5    5
 -0.3022886415169965   29   29    6    6
 -0.3028524538683472   29   29    7    7
 -0.3043442475228045   29   29    8    8
 -0.305570859856126   29   29    9    9
 -0.3057861930725962   29   29   10   10
 -0.3059932529880166   29   29   11   11
 -0.3060441478296749   29   29   12   12
 -0.3064854942637619   29   29   13   13
 -0.3074865802996286   29   29   14   14
 -0.3078329270016483   29   29   15   15
 -0.3079250177850288   29   29   16   16
 -0.3088141968338997   29   29   17   17
 -0.3108528778075844   29   29   18   18
 -0.3109776574914729   29   29   19   19
 -0.3115955237025524   29   29   20   20
 -0.3116793237985681   29   29   21   21
 -0.316492889479331   29   29   22   22
 -0.3170901154624239   29   29   23   23
 -0.3177157741215399   29   29   24   24
 -0.317839444320984   29   29   25   25
 -0.3183920738549265   29   29   26   26
 -0.3185978825997161   29   29   27   27
 -0.3189236408249036   29   29   28   28
 -0.3195626817889861   29   29   29   29
 -0.2921721198239974   30   30    1    1
 -0.2933604108657553   30   30    2    2
 -0.2936204967805292   30   30    3    3
 -0.2951207300798619   30   30    4    4
 -0.2968750139790628   30   30    5    5
 -0.3023457045268387   30   30    6    6
 -0.3029096233090153   30   30    7    7
 -0.3044016985692767   30   30    8    8
 -0.3056285424501393   30   30    9    9
 -0.3058439163150487   30   30   10   10
 -0.3060510153171576   30   30   11   11
 -0.3061019197662324   30   30   12   12
 -0.3065433495132609   30   30   13   13
 -0.3075446245240822   30   30   14   14
 -0.3078910366059494   30   30   15   15
 -0.307983144773302   30   30   16   16
 -0.3088724916724517   30   30   17   17
 -0.3109115574878291   30   30   18   18
 -0.3110363607263715   30   30   19   19
 -0.3116543435720209   30   30   20   20
 -0.3117381594869759   30   30   21   21
 -0.3165526338242615   30   30   22   22
 -0.3171499725456696   30   30   23   23
 -0.3177757493103354   30   30   24   24
 -0.3178994428549961   30   30   25   25
 -0.3184521767087846   30   30   26   26
 -0.3186580243040794   30   30   27   27
 -0.3189838440226287   30   30   28   28
 -0.319623005618438   30   30   29   29
 -0.3196833408352159   30   30   30   30
 -0.2928945224834039   31   31    1    1
 -0.2940857516036109   31   31    2    2
 -0.2943464805871233   31   31    3    3
 -0.2958504232497102   31   31    4    4
 -0.297609044658441   31   31    5    5
 -0.3030932616214098   31   31    6    6
 -0.3036585747064657   31   31    7    7
 -0.3051543391590317   31   31    8    8
 -0.3063842164411741   31   31    9    9
 -0.3066001228231932   31   31   10   10
 -0.3068077338826126   31   31   11   11
 -0.3068587641941735   31   31   12   12
 -0.3073012853869683   31   31   13   13
 -0.3083050360745621   31   31   14   14
 -0.3086523046687116   31   31   15   15
 -0.3087446405757441   31   31   16   16
 -0.3096361864066929   31   31   17   17
 -0.3116802938618017   31   31   18   18
 -0.3118054056793814   31   31   19   19
 -0.3124249165026195   31   31   20   20
 -0.3125089396544591   31   31   21   21
 -0.3173353178964259   31   31   22   22
 -0.3179341335523244   31   31   23   23
 -0.3185614575652331   31   31   24   24
 -0.3186854569451859   31   31   25   25
 -0.3192395574468467   31   31   26   26
 -0.3194459140053183   31   31   27   27
 -0.3197725393210318   31   31   28   28
 -0.3204132812594038   31   31   29   29
 -0.32047376565647   31   31   30   30
 -0.3212661448222839   31   31   31   31
 -0.2932304921437632   32   32    1    1
 -0.2944230876836614   32   32    2    2
 -0.2946841157408037   32   32    3    3
 -0.2961897835264871   32   32    4    4
 -0.2979504221919163   32   32    5    5
 -0.3034409299195424   32   32    6    6
 -0.3040068914566198   32   32    7    7
 -0.3055043716513268   32   32    8    8
 -0.3067356596851939   32   32    9    9
 -0.3069518137263131   32   32   10   10
 -0.3071596629295411   32   32   11   11
 -0.3072107517762918   32   32   12   12
 -0.3076537805705725   32   32   13   13
 -0.3086586826275218   32   32   14   14
 -0.3090063495620385   32   32   15   15
 -0.3090987913845489   32   32   16   16
 -0.3099913598783577   32   32   17   17
 -0.3120378120618063   32   32   18   18
 -0.3121630673910313   32   32   19   19
 -0.3127832888347314   32   32   20   20
 -0.3128674083667613   32   32   21   21
 -0.3176993227882543   32   32   22   22
 -0.3182988253258699   32   32   23   23
 -0.318926868921493   32   32   24   24
 -0.3190510105370507   32   32   25   25
 -0.3196057466291479   32   32   26   26
 -0.3198123398924315   32   32   27   27
 -0.3201393398692873   32   32   28   28
 -0.3207808167816342   32   32   29   29
 -0.3208413705583602   32   32   30   30
 -0.3216346586362185   32   32   31   31
 -0.3220035951602122   32   32   32   32
 -0.2932821317973454   33   33    1    1
 -0.2944749373604922   33   33    2    2
 -0.2947360113862456   33   33    3    3
 -0.2962419443290832   33   33    4    4
 -0.2980028930535724   33   33    5    5
 -0.3034943676926373   33   33    6    6
 -0.304060428898946   33   33    7    7
 -0.3055581728089232   33   33    8    8
 -0.30678967768002   33   33    9    9
 -0.307005869787166   33   33   10   10
 -0.307213755593889   33   33   11   11
 -0.3072648534376929   33   33   12   12
 -0.3077079602520094   33   33   13   13
 -0.3087130392782559   33   33   14   14
 -0.3090607674390111   33   33   15   15
 -0.3091532255410825   33   33   16   16
 -0.3100459512215722   33   33   17   17
 -0.3120927637975607   33   33   18   18
 -0.3122180411850027   33   33   19   19
 -0.3128383718534299   33   33   20   20
 -0.3129225061994154   33   33   21   21
 -0.3177552715501042   33   33   22   22
 -0.318354879663723   33   33   23   23
 -0.3189830338616013   33   33   24   24
 -0.3191071973392441   33   33   25   25
 -0.3196620311237042   33   33   26   26
 -0.3198686607693042   33   33   27   27
 -0.320195718332823   33   33   28   28
 -0.320837308213113   33   33   29   29
 -0.3208978726537233   33   33   30   30
 -0.321691300434384   33   33   31   31
 -0.3220603019303189   33   33   32   32
 -0.3221170186868291   33   33   33   33
 -0.2933030685259818   34   34    1    1
 -0.2944959592407408   34   34    2    2
 -0.2947570519039612   34   34    3    3
 -0.2962630923518459   34   34    4    4
 -0.2980241667863651   34   34    5    5
 -0.3035160334490205   34   34    6    6
 -0.3040821350651208   34   34    7    7
 -0.3055799858955491   34   34    8    8
 -0.3068115786809117   34   34    9    9
 -0.307027786221509   34   34   10   10
 -0.3072356868687158   34   34   11   11
 -0.3072867883602758   34   34   12   12
 -0.3077299268069562   34   34   13   13
 -0.3087350775834545   34   34   14   14
 -0.3090828305677137   34   34   15   15
 -0.3091752952701537   34   34   16   16
 -0.3100680846802516   34   34   17   17
 -0.3121150433734249   34   34   18   18
 -0.312240329704128   34   34   19   19
 -0.3128607046565176   34   34   20   20
 -0.3129448450086581   34   34   21   21
 -0.3177779553592148   34   34   22   22
 -0.3183776062774609   34   34   23   23
 -0.319005805317805   34   34   24   24
 -0.3191299776591895   34   34   25   25
 -0.3196848510519418   34   34   26   26
 -0.3198914954483512   34   34   27   27
 -0.320218576359748   34   34   28   28
 -0.320860212041646   34   34   29   29
 -0.3209207808058107   34   34   30   30
 -0.3217142652274337   34   34   31   31
 -0.3220832930655264   34   34   32   32
 -0.3221400138709137   34   34   33   33
 -0.3221630106965709   34   34   34   34
 -0.293447265264216   35   35    1    1
 -0.2946407424404499   35   35    2    2
 -0.2949019634647904   35   35    3    3
 -0.2964087443281141   35   35    4    4
 -0.2981706845605621   35   35    5    5
 -0.3036652511924457   35   35    6    6
 -0.3042316311213743   35   35    7    7
 -0.3057302183409758   35   35    8    8
 -0.306962416614932   35   35    9    9
 -0.3071787304497535   35   35   10   10
 -0.3073867333072623   35   35   11   11
 -0.3074378599218749   35   35   12   12
 -0.3078812162289374   35   35   13   13
 -0.3088868611682284   35   35   14   14
 -0.3092347851184657   35   35   15   15
 -0.309327295279375   35   35   16   16
 -0.3102205236119891   35   35   17   17
 -0.3122684886525162   35   35   18   18
 -0.3123938365778023   35   35   19   19
 -0.3130145165254484   35   35   20   20
 -0.3130986982435535   35   35   21   21
 -0.3179341846986343   35   35   22   22
 -0.3185341304235693   35   35   23   23
 -0.3191626383057304   35   35   24   24
 -0.3192868716940269   35   35   25   25
 -0.3198420178794703   35   35   26   26
 -0.3200487638685703   35   35   27   27
 -0.3203760055829237   35   35   28   28
 -0.3210179567125015   35   35   29   29
 -0.3210785552541189   35   35   30   30
 -0.3218724297768956   35   35   31   31
 -0.3222416390403339   35   35   32   32
 -0.3222983877313999   35   35   33   33
 -0.3223213958629983   35   35   34   34
 -0.3224798588964065   35   35   35   35
 -0.2935328602462739   36   36    1    1
 -0.2947266855452187   36   36    2    2
 -0.2949879827645404   36   36    3    3
 -0.2964952031374327   36   36    4    4
 -0.2982576573063199   36   36    5    5
 -0.3037538266361596   36   36    6    6
 -0.3043203717711938   36   36    7    7
 -0.305819396110378   36   36    8    8
 -0.3070519538015162   36   36    9    9
 -0.3072683307324405   36   36   10   10
 -0.3074763942618416   36   36   11   11
 -0.307527535789463   36   36   12   12
 -0.3079710214181435   36   36   13   13
 -0.3089769596917767   36   36   14   14
 -0.3093249851271796   36   36   15   15
 -0.3094175222721725   36   36   16   16
 -0.3103110111485781   36   36   17   17
 -0.3123595735554863   36   36   18   18
 -0.3124849580432308   36   36   19   19
 -0.3131058190356344   36   36   20   20
 -0.3131900253085182   36   36   21   21
 -0.3180269222159199   36   36   22   22
 -0.3186270429376931   36   36   23   23
 -0.3192557341479245   36   36   24   24
 -0.3193800037735825   36   36   25   25
 -0.3199353118883856   36   36   26   26
 -0.3201421181827648   36   36   27   27
 -0.3204694553495281   36   36   28   28
 -0.3211115937284073   36   36   29   29
 -0.3211722099458789   36   36   30   30
 -0.3219663160321547   36   36   31   31
 -0.3223356329894242   36   36   32   32
 -0.3223923982333901   36   36   33   33
 -0.3224154130761794   36   36   34   34
 -0.3225739223313184   36   36   35   35
 -0.3226680132033851   36   36   36   36
 -0.2935840641234423   37   37    1    1
 -0.2947780976732927   37   37    2    2
 -0.2950394404733059   37   37    3    3
 -0.2965469237657458   37   37    4    4
 -0.2983096853771684   37   37    5    5
 -0.3038068134588801   37   37    6    6
 -0.3043734574220573   37   37    7    7
 -0.305872743251073   37   37    8    8
 -0.307105515949596   37   37    9    9
 -0.3073219306253158   37   37   10   10
 -0.3075300304493225   37   37   11   11
 -0.3075811808980728   37   37   12   12
 -0.308024743888394   37   37   13   13
 -0.3090308576379169   37   37   14   14
 -0.3093789437828827   37   37   15   15
 -0.3094714970700568   37   37   16   16
 -0.3103651418066773   37   37   17   17
 -0.3124140615648469   37   37   18   18
 -0.3125394679246635   37   37   19   19
 -0.3131604372200693   37   37   20   20
 -0.3132446581818967   37   37   21   21
 -0.3180823988376779   37   37   22   22
 -0.3186826242445199   37   37   23   23
 -0.3193114251236568   37   37   24   24
 -0.3194357164269105   37   37   25   25
 -0.3199911214096707   37   37   26   26
 -0.3201979637793433   37   37   27   27
 -0.3205253580468077   37   37   28   28
 -0.3211676084403167   37   37   29   29
 -0.3212282352316823   37   37   30   30
 -0.3220224798418374   37   37   31   31
 -0.3223918612227633   37   37   32   32
 -0.3224486363688592   37   37   33   33
 -0.3224716552263582   37   37   34   34
 -0.3226301921318543   37   37   35   35
 -0.3227242994171343   37   37   36   36
 -0.3227805954494516   37   37   37   37
 -0.293587562694862   38   38    1    1
 -0.294781610473726   38   38    2    2
 -0.2950429563880991   38   38    3    3
 -0.2965504576448587   38   38    4    4
 -0.2983132402626918   38   38    5    5
 -0.3038104338523707   38   38    6    6
 -0.3043770845681091   38   38    7    7
 -0.3058763882637571   38   38    8    8
 -0.307109175652939   38   38    9    9
 -0.307325592907621   38   38   10   10
 -0.3075336952115038   38   38   11   11
 -0.3075848462698018   38   38   12   12
 -0.3080284145459576   38   38   13   13
 -0.3090345402850986   38   38   14   14
 -0.3093826305781242   38   38   15   15
 -0.3094751849682337   38   38   16   16
 -0.3103688403542059   38   38   17   17
 -0.3124177845288645   38   38   18   18
 -0.312543192383119   38   38   19   19
 -0.3131641690784681   38   38   20   20
 -0.3132483910439366   38   38   21   21
 -0.3180861893499218   38   38   22   22
 -0.3186864219095072   38   38   23   23
 -0.3193152302819145   38   38   24   24
 -0.3194395230663181   38   38   25   25