 &FCI NORB=  14,NELEC=22,MS2=0,
  ORBSYM=1,1,1,1,1,1,1,1,1,1,1,1,1,1,
  ISYM=1,
 &END
 -1.267505050195477    1    1    1    1
 -1.194688028296961    2    2    1    1
 -1.126054278628682    2    2    2    2
 -1.100915047852249    3    3    1    1
 -1.037668471331311    3    3    2    2
 -0.9562202078805131    3    3    3    3
 -1.067963599559475    4    4    1    1
 -1.006610054022163    4    4    2    2
 -0.9275996155850852    4    4    3    3
 -0.8998356651976513    4    4    4    4
 -1.054848196519139    5    5    1    1
 -0.9942481190569628    5    5    2    2
 -0.9162079887323747    5    5    3    3
 -0.8887850007143262    5    5    4    4
 -0.8778700467726545    5    5    5    5
 -1.046648614161706    6    6    1    1
 -0.9865195953102933    6    6    2    2
 -0.9090860892164646    6    6    3    3
 -0.8818762665140348    6    6    4    4
 -0.8710461570685357    6    6    5    5
 -0.8642753110590563    6    6    6    6
 -1.008462315953729    7    7    1    1
 -0.9505270654919604    7    7    2    2
 -0.8759186708204179    7    7    3    3
 -0.8497015809127793    7    7    4    4
 -0.8392666010105817    7    7    5    5
 -0.8327427849415616    7    7    6    6
 -0.8023607026590669    7    7    7    7
 -0.9976731975343437    8    8    1    1
 -0.9403577721944465    8    8    2    2
 -0.866547581672387    8    8    3    3
 -0.8406109774935162    8    8    4    4
 -0.8302876370964222    8    8    5    5
 -0.8238336166191673    8    8    6    6
 -0.7937765795846582    8    8    7    7
 -0.7852842944688042    8    8    8    8
 -0.9878526796541837    9    9    1    1
 -0.9311014342088154    9    9    2    2
 -0.8580177885087992    9    9    3    3
 -0.8323364892591565    9    9    4    4
 -0.8221147658536817    9    9    5    5
 -0.815724275020856    9    9    6    6
 -0.7859631020732559    9    9    7    7
 -0.7775544100999557    9    9    8    8
 -0.7699006142416971    9    9    9    9
 -0.9843046811895662   10   10    1    1
 -0.9277572650558478   10   10    2    2
 -0.8549361085590019   10   10    3    3
 -0.8293470469599562   10   10    4    4
 -0.8191620361733722   10   10    5    5
 -0.8127944976006658   10   10    6    6
 -0.7831402156886402   10   10    7    7
 -0.7747617246013883   10   10    8    8
 -0.7671354183238261   10   10    9    9
 -0.7643801539585774   10   10   10   10
 -0.9667960466060415   11   11    1    1
 -0.9112544857371087   11   11    2    2
 -0.8397286588708323   11   11    3    3
 -0.8145947708958026   11   11    4    4
 -0.804590929248713   11   11    5    5
 -0.7983366553065593   11   11    6    6
 -0.7692098584261062   11   11    7    7
 -0.7609804024309467   11   11    8    8
 -0.7534897515174072   11   11    9    9
 -0.7507834972989901   11   11   10   10
 -0.7374286955218997   11   11   11   11
 -0.9030986501165592   12   12    1    1
 -0.8512164472236267   12   12    2    2
 -0.7844031023427008   12   12    3    3
 -0.7609251615897227   12   12    4    4
 -0.7515804234526752   12   12    5    5
 -0.7457382126012276   12   12    6    6
 -0.7185304359069619   12   12    7    7
 -0.7108431779516645   12   12    8    8
 -0.7038460488754132   12   12    9    9
 -0.7013180963252301   12   12   10   10
 -0.6888431762013799   12   12   11   11
 -0.6434587157791363   12   12   12   12
 -0.8634474743828967   13   13    1    1
 -0.8138431957722024   13   13    2    2
 -0.7499633373701741   13   13    3    3
 -0.7275162119711339   13   13    4    4
 -0.7185817610756954   13   13    5    5
 -0.7129960565639638   13   13    6    6
 -0.6869828562705013   13   13    7    7
 -0.6796331127340952   13   13    8    8
 -0.6729431974872497   13   13    9    9
 -0.6705262364558787   13   13   10   10
 -0.6585990363956454   13   13   11   11
 -0.6152072123432466   13   13   12   12
 -0.5881961108582755   13   13   13   13
 -0.8522047913632447   14   14    1    1
 -0.8032463947516114   14   14    2    2
 -0.7401982962662677   14   14    3    3
 -0.7180434479576714   14   14    4    4
 -0.7092253297892975   14   14    5    5
 -0.7037123550117189   14   14    6    6
 -0.6780378645690612   14   14    7    7
 -0.6707838197743935   14   14    8    8
 -0.6641810118488154   14   14    9    9
 -0.6617955213209236   14   14   10   10
 -0.6500236216507748   14   14   11   11
 -0.6071967891444039   14   14   12   12
 -0.5805373908736026   14   14   13   13
 -0.5729783927176205   14   14   14   14
 -0.6337525250977387    1    1  0  0
 -0.5630271393143408    2    2  0  0
 -0.4781101039402565    3    3  0  0
 -0.4499178325988257    4    4  0  0
 -0.4389350233863272    5    5  0  0
 -0.4321376555295282    6    6  0  0
 -0.4011803513295334    7    7  0  0
 -0.3926421472344021    8    8  0  0
 -0.3849503071208485    9    9  0  0
 -0.3821900769792887   10   10  0  0
 -0.3687143477609499   11   11  0  0
 -0.3217293578895681   12   12  0  0
 -0.2940980554291378   13   13  0  0
 -0.2864891963588103   14   14  0  0
 -275.1701482834461  0  0  0  0
