 &FCI NORB=  14,NELEC=24,MS2=0,
  ORBSYM=1,1,1,1,1,1,1,1,1,1,1,1,1,1,
  ISYM=1,
 &END
 -0.7611627909983874    1    1    1    1
 -0.7659913344619494    2    2    1    1
 -0.7708505084716379    2    2    2    2
 -0.8824987290409921    3    3    1    1
 -0.8880969841318951    3    3    2    2
 -1.023176665976328    3    3    3    3
 -0.8848449065978766    4    4    1    1
 -0.8904580449968454    4    4    2    2
 -1.025896844545934    4    4    3    3
 -1.028624254878828    4    4    4    4
 -1.113791190912496    5    5    1    1
 -1.120856682339894    5    5    2    2
 -1.291339148499461    5    5    3    3
 -1.294772253646058    5    5    4    4
 -1.629783840756483    5    5    5    5
 -1.11401155649988    6    6    1    1
 -1.121078445847446    6    6    2    2
 -1.291594642269113    6    6    3    3
 -1.295028426661728    6    6    4    4
 -1.630106296416312    6    6    5    5
 -1.630428815874573    6    6    6    6
 -1.11583695982099    7    7    1    1
 -1.122915428871845    7    7    2    2
 -1.293711030681576    7    7    3    3
 -1.297150441623932    7    7    4    4
 -1.632777365158713    7    7    5    5
 -1.633100413092722    7    7    6    6
 -1.635776387951665    7    7    7    7
 -1.115915516282543    8    8    1    1
 -1.122994483667385    8    8    2    2
 -1.293802109723139    8    8    3    3
 -1.297241762804771    8    8    4    4
 -1.632892314938052    8    8    5    5
 -1.633215385615081    8    8    6    6
 -1.635891548866346    8    8    7    7
 -1.636006717888515    8    8    8    8
 -1.116239409195502    9    9    1    1
 -1.123320431240697    9    9    2    2
 -1.294177633970268    9    9    3    3
 -1.297618285406381    9    9    4    4
 -1.633366259641498    9    9    5    5
 -1.633689424089337    9    9    6    6
 -1.636366364093232    9    9    7    7
 -1.636481566543047    9    9    8    8
 -1.636956553021735    9    9    9    9
 -1.11660339172577   10   10    1    1
 -1.123686722745455   10   10    2    2
 -1.294599638466749   10   10    3    3
 -1.298041411827966   10   10    4    4
 -1.633898866516996   10   10    5    5
 -1.634222136342062   10   10    6    6
 -1.636899949240595   10   10    7    7
 -1.637015189255542   10   10    8    8
 -1.637490330617473   10   10    9    9
 -1.638024282267019   10   10   10   10
 -1.150896350302649   11   11    1    1
 -1.158197223539243   11   11    2    2
 -1.334359191504615   11   11    3    3
 -1.33790666810136   11   11    4    4
 -1.684078927372513   11   11    5    5
 -1.684412125412738   11   11    6    6
 -1.687172178905816   11   11    7    7
 -1.687290958155094   11   11    8    8
 -1.687780691988411   11   11    9    9
 -1.688331042282217   11   11   10   10
 -1.740182816086663   11   11   11   11
 -1.165610683424419   12   12    1    1
 -1.173004899107407   12   12    2    2
 -1.351419116703554   12   12    3    3
 -1.355011948168592   12   12    4    4
 -1.705610056856238   12   12    5    5
 -1.705947514869099   12   12    6    6
 -1.70874285594174   12   12    7    7
 -1.708863153796444   12   12    8    8
 -1.70935914892928   12   12    9    9
 -1.709916535510545   12   12   10   10
 -1.762431239797404   12   12   11   11
 -1.784964111988522   12   12   12   12
 -1.173810224764696   13   13    1    1
 -1.181256455394041   13   13    2    2
 -1.360925735914435   13   13    3    3
 -1.364543841315741   13   13    4    4
 -1.71760824833686   13   13    5    5
 -1.717948080213453   13   13    6    6
 -1.720763085239944   13   13    7    7
 -1.720884229335376   13   13    8    8
 -1.721383713568521   13   13    9    9
 -1.72194502111103   13   13   10   10
 -1.774829142472472   13   13   11   11
 -1.797520523177344   13   13   12   12
 -1.810165263011478   13   13   13   13
 -1.178194817785347   14   14    1    1
 -1.185668862698601   14   14    2    2
 -1.366009271018681   14   14    3    3
 -1.369640891313072   14   14    4    4
 -1.724024117767013   14   14    5    5
 -1.724365219034895   14   14    6    6
 -1.727190739092805   14   14    7    7
 -1.727312335703935   14   14    8    8
 -1.727813685685936   14   14    9    9
 -1.728377089909051   14   14   10   10
 -1.781458752018164   14   14   11   11
 -1.804234892991237   14   14   12   12
 -1.816926865365057   14   14   13   13
 -1.823713724675733   14   14   14   14
 -0.3805813954991937    1    1  0  0
 -0.385425254235819    2    2  0  0
 -0.511588332988164    3    3  0  0
 -0.5143121274394139    4    4  0  0
 -0.8148919203782414    5    5  0  0
 -0.8152144079372863    6    6  0  0
 -0.8178881939758325    7    7  0  0
 -0.8180033589442575    8    8  0  0
 -0.8184782765108677    9    9  0  0
 -0.8190121411335097   10   10  0  0
 -0.8700914080433313   11   11  0  0
 -0.892482055994261   12   12  0  0
 -0.9050826315057392   13   13  0  0
 -0.9118568623378667   14   14  0  0
 -4751.083687553801  0  0  0  0
