 &FCI NORB=  24,NELEC=39,MS2=3,
  ORBSYM=1,1,1,1,1,1,1,1,1,1,1,1,1,1,1,1,1,1,1,1,1,1,1,1,
  ISYM=1,
 &END
 -1.211290428849344    1    1    1    1
 -1.193190339653035    2    2    1    1
 -1.175360716747148    2    2    2    2
 -1.186614616868459    3    3    1    1
 -1.168883253773841    3    3    2    2
 -1.162441488374881    3    3    3    3
 -1.177541464476986    4    4    1    1
 -1.159945679823068    4    4    2    2
 -1.153553169774837    4    4    3    3
 -1.144732813483715    4    4    4    4
 -1.141372772180589    5    5    1    1
 -1.124317449616593    5    5    2    2
 -1.118121288262579    5    5    3    3
 -1.109571853006734    5    5    4    4
 -1.075490876546199    5    5    5    5
 -1.03767347181756    6    6    1    1
 -1.022167708749339    6    6    2    2
 -1.016534498968211    6    6    3    3
 -1.008761821732304    6    6    4    4
 -0.9777772687197321    6    6    5    5
 -0.8889414202147822    6    6    6    6
 -1.031198127856549    7    7    1    1
 -1.015789124657374    7    7    2    2
 -1.010191067524865    7    7    3    3
 -1.002466893753649    7    7    4    4
 -0.9716756921600768    7    7    5    5
 -0.8833942017367017    7    7    6    6
 -0.8778815992998402    7    7    7    7
 -1.029088063903814    8    8    1    1
 -1.013710591000631    8    8    2    2
 -1.008123988755638    8    8    3    3
 -1.000415620386118    8    8    4    4
 -0.9696874245358543    8    8    5    5
 -0.8815865779534675    8    8    6    6
 -0.8760852555445403    8    8    7    7
 -0.8742925875137226    8    8    8    8
 -0.969828324439748    9    9    1    1
 -0.9553363588802238    9    9    2    2
 -0.9500714595148385    9    9    3    3
 -0.9428069753154815    9    9    4    4
 -0.9138482537640257    9    9    5    5
 -0.8308206690317772    9    9    6    6
 -0.8256361386876846    9    9    7    7
 -0.8239467009285786    9    9    8    8
 -0.7764999677072439    9    9    9    9
 -0.9181886251663176   10   10    1    1
 -0.9044683020970323   10   10    2    2
 -0.8994837387592532   10   10    3    3
 -0.8926060609358062   10   10    4    4
 -0.865189282050465   10   10    5    5
 -0.7865826029557678   10   10    6    6
 -0.7816741292921167   10   10    7    7
 -0.7800746477197117   10   10    8    8
 -0.7351542740336813   10   10    9    9
 -0.696010082557724   10   10   10   10
 -0.904216967365898   11   11    1    1
 -0.8907054201990592   11   11    2    2
 -0.885796704689636   11   11    3    3
 -0.879023681354795   11   11    4    4
 -0.8520240910972332   11   11    5    5
 -0.774613534009536   11   11    6    6
 -0.7697797503523511   11   11    7    7
 -0.7682046073619927   11   11    8    8
 -0.7239677665277164   11   11    9    9
 -0.6854192143715963   11   11   10   10
 -0.674989502599358   11   11   11   11
 -0.9018197547548488   12   12    1    1
 -0.8883440286933775   12   12    2    2
 -0.8834483269131231   12   12    3    3
 -0.8766932598626026   12   12    4    4
 -0.8497652495030016   12   12    5    5
 -0.7725599192252144   12   12    6    6
 -0.7677389506418009   12   12    7    7
 -0.7661679835879454   12   12    8    8
 -0.7220484211465197   12   12    9    9
 -0.6836020668905735   12   12   10   10
 -0.6732000058233013   12   12   11   11
 -0.6714152532672646   12   12   12   12
 -0.8599375137121761   13   13    1    1
 -0.8470876262444546   13   13    2    2
 -0.8424192902553715   13   13    3    3
 -0.8359779414894388   13   13    4    4
 -0.8103005196368362   13   13    5    5
 -0.7366807531431917   13   13    6    6
 -0.7320836795977889   13   13    7    7
 -0.7305856712704115   13   13    8    8
 -0.6885151060250734   13   13    9    9
 -0.6518542742836535   13   13   10   10
 -0.6419353049058937   13   13   11   11
 -0.6402334396855571   13   13   12   12
 -0.6104997694004356   13   13   13   13
 -0.858073073908889   14   14    1    1
 -0.8452510464208528   14   14    2    2
 -0.8405928319014049   14   14    3    3
 -0.8341654486932419   14   14    4    4
 -0.8085436983360497   14   14    5    5
 -0.7350835476525899   14   14    6    6
 -0.730496441071949   14   14    7    7
 -0.7290016805925916   14   14    8    8
 -0.6870223289937563   14   14    9    9
 -0.6504409819972515   14   14   10   10
 -0.6405435180440378   14   14   11   11
 -0.6388453426560508   14   14   12   12
 -0.6091761382623379   14   14   13   13
 -0.6078553769031945   14   14   14   14
 -0.8576334420509047   15   15    1    1
 -0.8448179839005382   15   15    2    2
 -0.8401621560070855   15   15    3    3
 -0.8337380658546165   15   15    4    4
 -0.8081294427450408   15   15    5    5
 -0.7347069292087129   15   15    6    6
 -0.730122172822071   15   15    7    7
 -0.7286281781799678   15   15    8    8
 -0.686670334609879   15   15    9    9
 -0.6501077299862988   15   15   10   10
 -0.6402153369770399   15   15   11   11
 -0.6385180316454895   15   15   12   12
 -0.6088640282035944   15   15   13   13
 -0.6075439435336373   15   15   14   14
 -0.6072326697262843   15   15   15   15
 -0.8556175548101715   16   16    1    1
 -0.8428322196905809   16   16    2    2
 -0.8381873354282711   16   16    3    3
 -0.8317783452482805   16   16    4    4
 -0.8062299157995956   16   16    5    5
 -0.7329799835794377   16   16    6    6
 -0.7284060037687179   16   16    7    7
 -0.7269155207955738   16   16    8    8
 -0.6850563001071901   16   16    9    9
 -0.6485796367313909   16   16   10   10
 -0.6387104960206899   16   16   11   11
 -0.6370171802445762   16   16   12   12
 -0.6074328792236037   16   16   13   13
 -0.6061158974431939   16   16   14   14
 -0.6058053552921242   16   16   15   15
 -0.6043813957935523   16   16   16   16
 -0.8417617044465906   17   17    1    1
 -0.8291834147403034   17   17    2    2
 -0.8246137496234316   17   17    3    3
 -0.8183085464782166   17   17    4    4
 -0.7931738476893052   17   17    5    5
 -0.7211101231319976   17   17    6    6
 -0.7166102142417107   17   17    7    7
 -0.715143868114438   17   17    8    8
 -0.6739625146518184   17   17    9    9
 -0.6380765534964874   17   17   10   10
 -0.6283672334160852   17   17   11   11
 -0.6267013391554375   17   17   12   12
 -0.5975961256026372   17   17   13   13
 -0.5963004709939043   17   17   14   14
 -0.5959949577550542   17   17   15   15
 -0.5945940578227862   17   17   16   16
 -0.5849652157706912   17   17   17   17
 -0.841740230475317   18   18    1    1
 -0.8291622616506171   18   18    2    2
 -0.8245927131093236   18   18    3    3
 -0.8182876708145612   18   18    4    4
 -0.7931536132306334   18   18    5    5
 -0.7210917270728904   18   18    6    6
 -0.7165919329786481   18   18    7    7
 -0.715125624258963   18   18    8    8
 -0.6739453213635012   18   18    9    9
 -0.6380602756859054   18   18   10   10
 -0.6283512032975276   18   18   11   11
 -0.6266853515350895   18   18   12   12
 -0.597580880478077   18   18   13   13
 -0.596285258922463   18   18   14   14
 -0.5959797534774843   18   18   15   15
 -0.5945788892832224   18   18   16   16
 -0.584950292870097   18   18   17   17
 -0.5849353703501972   18   18   18   18
 -0.8280173076615119   19   19    1    1
 -0.815644397938286   19   19    2    2
 -0.8111493469196912   19   19    3    3
 -0.80494709596793   19   19    4    4
 -0.7802227998754152   19   19    5    5
 -0.7093357413732323   19   19    6    6
 -0.7049093075923002   19   19    7    7
 -0.7034669041591308   19   19    8    8
 -0.6629579652992984   19   19    9    9
 -0.6276579548786315   19   19   10   10
 -0.6181071698646188   19   19   11   11
 -0.6164684765464697   19   19   12   12
 -0.5878384967818912   19   19   13   13
 -0.5865639977935015   19   19   14   14
 -0.5862634730153473   19   19   15   15
 -0.5848854471630281   19   19   16   16
 -0.5754138261213992   19   19   17   17
 -0.5753991468839057   19   19   18   18
 -0.566018392829465   19   19   19   19
 -0.8118692416221375   20   20    1    1
 -0.7997376294677681   20   20    2    2
 -0.7953302413277471   20   20    3    3
 -0.7892489472171476   20   20    4    4
 -0.7650068265120126   20   20    5    5
 -0.6955022136319667   20   20    6    6
 -0.6911621045502311   20   20    7    7
 -0.6897478309951194   20   20    8    8
 -0.650028901008098   20   20    9    9
 -0.6154173144817014   20   20   10   10
 -0.6060527897133466   20   20   11   11
 -0.6044460543357804   20   20   12   12
 -0.5763744189435557   20   20   13   13
 -0.5751247753460391   20   20   14   14
 -0.5748301114284238   20   20   15   15
 -0.5734789599569435   20   20   16   16
 -0.5641920552982513   20   20   17   17
 -0.5641776623365328   20   20   18   18
 -0.5549798525690878   20   20   19   19
 -0.5441565868874584   20   20   20   20
 -0.8111457339182069   21   21    1    1
 -0.7990249330058513   21   21    2    2
 -0.7946214725663885   21   21    3    3
 -0.7885455978791558   21   21    4    4
 -0.7643250808513012   21   21    5    5
 -0.6948824078998783   21   21    6    6
 -0.690546166562104   21   21    7    7
 -0.6891331533550388   21   21    8    8
 -0.6494496194027037   21   21    9    9
 -0.6148688774362601   21   21   10   10
 -0.6055126979844493   21   21   11   11
 -0.6039073944697548   21   21   12   12
 -0.5758607754760178   21   21   13   13
 -0.574612245514446   21   21   14   14
 -0.5743178441903661   21   21   15   15
 -0.5729678968148765   21   21   16   16
 -0.5636892683005702   21   21   17   17
 -0.5636748881653244   21   21   18   18
 -0.5544852751442086   21   21   19   19
 -0.543671654754827   21   21   20   20
 -0.5431871547756949   21   21   21   21
 -0.780535993347152   22   22    1    1
 -0.7688725881356262   22   22    2    2
 -0.7646352985530521   22   22    3    3
 -0.7587887056584021   22   22    4    4
 -0.7354821843673409   22   22    5    5
 -0.6686600296714181   22   22    6    6
 -0.6644874225819083   22   22    7    7
 -0.6631277314424855   22   22    8    8
 -0.6249417122133754   22   22    9    9
 -0.5916659238404547   22   22   10   10
 -0.5826628131576463   22   22   11   11
 -0.5811180880594656   22   22   12   12
 -0.5541298482143762   22   22   13   13
 -0.5529284333107044   22   22   14   14
 -0.5526451416402627   22   22   15   15
 -0.5513461364533594   22   22   16   16
 -0.5424176502128789   22   22   17   17
 -0.5424038127325357   22   22   18   18
 -0.533560982858717   22   22   19   19
 -0.5231554298497233   22   22   20   20
 -0.5226892131679666   22   22   21   21
 -0.5029647906069603   22   22   22   22
 -0.7792899409539306   23   23    1    1
 -0.7676451552732154   23   23    2    2
 -0.7634146301254273   23   23    3    3
 -0.7575773707671301   23   23    4    4
 -0.7343080561479968   23   23    5    5
 -0.6675925767450633   23   23    6    6
 -0.6634266308308154   23   23    7    7
 -0.6620691103105731   23   23    8    8
 -0.6239440514741338   23   23    9    9
 -0.5907213847715677   23   23   10   10
 -0.5817326467092514   23   23   11   11
 -0.5801903876195852   23   23   12   12
 -0.5532452319642504   23   23   13   13
 -0.5520457350066167   23   23   14   14
 -0.5517628955847157   23   23   15   15
 -0.5504659641375703   23   23   16   16
 -0.5415517313866696   23   23   17   17
 -0.5415379159965639   23   23   18   18
 -0.5327092028699818   23   23   19   19
 -0.5223202613489145   23   23   20   20
 -0.5218547889382958   23   23   21   21
 -0.5021618545650817   23   23   22   22
 -0.5013602003351696   23   23   23   23
 -0.7556402115681941   24   24    1    1
 -0.7443488194264315   24   24    2    2
 -0.7402466813777792   24   24    3    3
 -0.7345865699549591   24   24    4    4
 -0.7120234276663199   24   24    5    5
 -0.6473326157854485   24   24    6    6
 -0.6432930971331603   24   24    7    7
 -0.6419767743639118   24   24    8    8
 -0.6050087269001502   24   24    9    9
 -0.572794294791279   24   24   10   10
 -0.564078345086057   24   24   11   11
 -0.5625828901551467   24   24   12   12
 -0.5364554604911486   24   24   13   13
 -0.5352923656182285   24   24   14   14
 -0.5350181097483997   24   24   15   15
 -0.5337605373076331   24   24   16   16
 -0.5251168318420996   24   24   17   17
 -0.5251034357185854   24   24   18   18
 -0.5165426545455614   24   24   19   19
 -0.5064689944655412   24   24   20   20
 -0.5060176481150308   24   24   21   21
 -0.4869223508268886   24   24   22   22
 -0.4861450250331618   24   24   23   23
 -0.471391596713296   24   24   24   24
 -0.6056452144246718    1    1  0  0
 -0.5876803583735742    2    2  0  0
 -0.5812207441874405    3    3  0  0
 -0.5723664067418575    4    4  0  0
 -0.5377454382730995    5    5  0  0
 -0.4444707101073911    6    6  0  0
 -0.4389407996499201    7    7  0  0
 -0.4371462937568613    8    8  0  0
 -0.388249983853622    9    9  0  0
 -0.348005041278862   10   10  0  0
 -0.337494751299679   11   11  0  0
 -0.3357076266336323   12   12  0  0
 -0.3052498847002178   13   13  0  0
 -0.3039276884515972   14   14  0  0
 -0.3036163348631422   15   15  0  0
 -0.3021906978967762   16   16  0  0
 -0.2924826078853456   17   17  0  0
 -0.2924676851750986   18   18  0  0
 -0.2830091964147325   19   19  0  0
 -0.2720782934437292   20   20  0  0
 -0.2715935773878475   21   21  0  0
 -0.2514823953034802   22   22  0  0
 -0.2506801001675848   23   23  0  0
 -0.235695798356648   24   24  0  0
 -4806.440770200234  0  0  0  0
