 &FCI NORB=  51,NELEC=74,MS2=0,
  ORBSYM=1,1,1,1,1,1,1,1,1,1,1,1,1,1,1,1,1,1,1,1,1,1,1,1,1,1,1,1,1,1,1,1,1,1,1,1,1,1,1,1,1,1,1,1,1,1,1,1,1,1,1,
  ISYM=1,
 &END
 -0.7858017914030787    1    1    1    1
 -0.7821436798047618    2    2    1    1
 -0.7785025976668154    2    2    2    2
 -0.7800148230923465    3    3    1    1
 -0.7763836513357659    3    3    2    2
 -0.7742704724017262    3    3    3    3
 -0.7769012121608273    4    4    1    1
 -0.7732845350724772    4    4    2    2
 -0.7711797913845821    4    4    3    3
 -0.7681014475409326    4    4    4    4
 -0.7722673886142992    5    5    1    1
 -0.7686722831790627    5    5    2    2
 -0.7665800932247798    5    5    3    3
 -0.7635201101481925    5    5    4    4
 -0.758966098120316    5    5    5    5
 -0.6943159981330628    6    6    1    1
 -0.6910837766830041    6    6    2    2
 -0.6892027689157353    6    6    3    3
 -0.6864516554601962    6    6    4    4
 -0.6823573178599529    6    6    5    5
 -0.6134813009305421    6    6    6    6
 -0.6857429046635191    7    7    1    1
 -0.6825505931920294    7    7    2    2
 -0.6806928112404542    7    7    3    3
 -0.6779756672640328    7    7    4    4
 -0.6739318846546541    7    7    5    5
 -0.6059063169911877    7    7    6    6
 -0.5984248654571314    7    7    7    7
 -0.6851676946029173    8    8    1    1
 -0.6819780608837783    8    8    2    2
 -0.6801218372638484    8    8    3    3
 -0.6774069724631075    8    8    4    4
 -0.6733665818311362    8    8    5    5
 -0.6053980748979114    8    8    6    6
 -0.5979228989026336    8    8    7    7
 -0.5974213534042054    8    8    8    8
 -0.6440250815096867    9    9    1    1
 -0.6410269773490039    9    9    2    2
 -0.6392822153330155    9    9    3    3
 -0.6367303713999791    9    9    4    4
 -0.6329325961595771    9    9    5    5
 -0.5690454287368188    9    9    6    6
 -0.5620191184370491    9    9    7    7
 -0.5615476894962944    9    9    8    8
 -0.5278281497335024    9    9    9    9
 -0.6400881845096008   10   10    1    1
 -0.6371084076278005   10   10    2    2
 -0.635374311265284   10   10    3    3
 -0.6328380666419843   10   10    4    4
 -0.6290635070346068   10   10    5    5
 -0.5655668790566495   10   10    6    6
 -0.5585835202827364   10   10    7    7
 -0.5581149731663638   10   10    8    8
 -0.5246015594672109   10   10    9    9
 -0.5213946932053171   10   10   10   10
 -0.6299413799565783   11   11    1    1
 -0.627008839087507   11   11    2    2
 -0.6253022319636492   11   11    3    3
 -0.6228061923919566   11   11    4    4
 -0.6190914678503351   11   11    5    5
 -0.5566014009829565   11   11    6    6
 -0.5497287437941021   11   11    7    7
 -0.5492676241793282   11   11    8    8
 -0.5162854717453249   11   11    9    9
 -0.5131294413619468   11   11   10   10
 -0.5049952119262163   11   11   11   11
 -0.6241280718527676   12   12    1    1
 -0.6212225934440164   12   12    2    2
 -0.6195317354570445   12   12    3    3
 -0.6170587301668442   12   12    4    4
 -0.613378286336045   12   12    5    5
 -0.5514648985433969   12   12    6    6
 -0.5446556645158108   12   12    7    7
 -0.5441988002658673   12   12    8    8
 -0.5115210180798367   12   12    9    9
 -0.5083941125921828   12   12   10   10
 -0.5003349485250748   12   12   11   11
 -0.4957176915811335   12   12   12   12
 -0.6221166658868539   13   13    1    1
 -0.6192205510957137   13   13    2    2
 -0.6175351423137944   13   13    3    3
 -0.6150701068903869   13   13    4    4
 -0.6114015241935636   13   13    5    5
 -0.549687667495882   13   13    6    6
 -0.5429003778969544   13   13    7    7
 -0.542444986004239   13   13    8    8
 -0.5098725159953178   13   13    9    9
 -0.5067556877284081   13   13   10   10
 -0.4987224962964304   13   13   11   11
 -0.4941201195967563   13   13   12   12
 -0.4925276961803819   13   13   13   13
 -0.6189670736774633   14   14    1    1
 -0.6160856210567549   14   14    2    2
 -0.6144087449997411   14   14    3    3
 -0.6119561893197502   14   14    4    4
 -0.6083061795693131   14   14    5    5
 -0.546904761828703   14   14    6    6
 -0.540151834264448   14   14    7    7
 -0.5396987478858527   14   14    8    8
 -0.5072911826341998   14   14    9    9
 -0.5041901339446037   14   14   10   10
 -0.4961976121788447   14   14   11   11
 -0.4916185359477047   14   14   12   12
 -0.490034174498902   14   14   13   13
 -0.4875532767783166   14   14   14   14
 -0.5949125029289112   15   15    1    1
 -0.5921430305877217   15   15    2    2
 -0.5905313220258225   15   15    3    3
 -0.5881740786437356   15   15    4    4
 -0.5846659171781405   15   15    5    5
 -0.5256507083489798   15   15    6    6
 -0.5191602160268598   15   15    7    7
 -0.5187247376904571   15   15    8    8
 -0.4875766094981985   15   15    9    9
 -0.4845960751271677   15   15   10   10
 -0.4769141622587957   15   15   11   11
 -0.4725130401028386   15   15   12   12
 -0.470990250805742   15   15   13   13
 -0.468605766823912   15   15   14   14
 -0.4503946033378247   15   15   15   15
 -0.5944259047352694   16   16    1    1
 -0.5916586976351563   16   16    2    2
 -0.5900483073418615   16   16    3    3
 -0.5876929920254415   16   16    4    4
 -0.5841876999986693   16   16    5    5
 -0.5252207616191499   16   16    6    6
 -0.5187355780807995   16   16    7    7
 -0.5183004559362246   16   16    8    8
 -0.4871778048062888   16   16    9    9
 -0.4841997083108008   16   16   10   10
 -0.4765240787276297   16   16   11   11
 -0.4721265563919496   16   16   12   12
 -0.4706050126335122   16   16   13   13
 -0.4682224789983174   16   16   14   14
 -0.4500262110123462   16   16   15   15
 -0.4496581200068757   16   16   16   16
 -0.5941935530259744   17   17    1    1
 -0.5914274275834651   17   17    2    2
 -0.5898176667663325   17   17    3    3
 -0.5874632721055154   17   17    4    4
 -0.5839593502421018   17   17    5    5
 -0.5250154611086115   17   17    6    6
 -0.5185328125262046   17   17    7    7
 -0.5180978604640122   17   17    8    8
 -0.4869873746874538   17   17    9    9
 -0.4840104422829076   17   17   10   10
 -0.47633781298226   17   17   11   11
 -0.4719420095686915   17   17   12   12
 -0.4704210605577074   17   17   13   13
 -0.4680394582173271   17   17   14   14
 -0.4498503028654716   17   17   15   15
 -0.4494823557409686   17   17   16   16
 -0.4493066601785405   17   17   17   17
 -0.5937084977877425   18   18    1    1
 -0.5909446304034511   18   18    2    2
 -0.5893361836748217   18   18    3    3
 -0.5869837109659632   18   18    4    4
 -0.5834826494426619   18   18    5    5
 -0.5245868776979256   18   18    6    6
 -0.5181095210656526   18   18    7    7
 -0.5176749240658386   18   18    8    8
 -0.4865898345663232   18   18    9    9
 -0.4836153323070542   18   18   10   10
 -0.475948966367923   18   18   11   11
 -0.4715567513599526   18   18   12   12
 -0.4700370439381462   18   18   13   13
 -0.467657385760042   18   18   14   14
 -0.4494830786761246   18   18   15   15
 -0.4491154319161733   18   18   16   16
 -0.4489398797784802   18   18   17   17
 -0.4485733987905449   18   18   18   18
 -0.58942225382282   19   19    1    1
 -0.5866783400183408   19   19    2    2
 -0.5850815053773085   19   19    3    3
 -0.5827460162083331   19   19    4    4
 -0.5792702303950493   19   19    5    5
 -0.5207996532485728   19   19    6    6
 -0.5143690595157315   19   19    7    7
 -0.5139376000636778   19   19    8    8
 -0.4830769275596458   19   19    9    9
 -0.4801238995464167   19   19   10   10
 -0.4725128804902455   19   19   11   11
 -0.4681523748230386   19   19   12   12
 -0.4666436388405655   19   19   13   13
 -0.4642811604662582   19   19   14   14
 -0.4462380617351695   19   19   15   15
 -0.4458730691796164   19   19   16   16
 -0.4456987844303698   19   19   17   17
 -0.4453349492306093   19   19   18   18
 -0.4421198794688975   19   19   19   19
 -0.5886267047381623   20   20    1    1
 -0.5858864944214652   20   20    2    2
 -0.584291815044047   20   20    3    3
 -0.5819594781080566   20   20    4    4
 -0.5784883835974922   20   20    5    5
 -0.5200967247711616   20   20    6    6
 -0.5136748104747086   20   20    7    7
 -0.5132439333677734   20   20    8    8
 -0.482424913820689   20   20    9    9
 -0.4794758715387716   20   20   10   10
 -0.4718751251508009   20   20   11   11
 -0.467520504901509   20   20   12   12
 -0.4660138052750135   20   20   13   13
 -0.4636545155612903   20   20   14   14
 -0.4456357697802078   20   20   15   15
 -0.445271269858741   20   20   16   16
 -0.4450972203433558   20   20   17   17
 -0.4447338762155871   20   20   18   18
 -0.4415231458655439   20   20   19   19
 -0.4409272176794762   20   20   20   20
 -0.5844646486217009   21   21    1    1
 -0.5817438137581005   21   21    2    2
 -0.5801604100244869   21   21    3    3
 -0.5778445645543643   21   21    4    4
 -0.5743980134259167   21   21    5    5
 -0.5164192297865461   21   21    6    6
 -0.510042723500742   21   21    7    7
 -0.5096148930355645   21   21    8    8
 -0.4790137883193513   21   21    9    9
 -0.4760855980976078   21   21   10   10
 -0.4685385949950489   21   21   11   11
 -0.4642147653532804   21   21   12   12
 -0.4627187192842019   21   21   13   13
 -0.4603761116137915   21   21   14   14
 -0.4424847726093392   21   21   15   15
 -0.4421228499904572   21   21   16   16
 -0.4419500311427331   21   21   17   17
 -0.4415892561451741   21   21   18   18
 -0.438401228196813   21   21   19   19
 -0.4378095136941067   21   21   20   20
 -0.4347138543404828   21   21   21   21
 -0.5832305799512203   22   22    1    1
 -0.5805154899980616   22   22    2    2
 -0.5789354295443966   22   22    3    3
 -0.5766244738693148   22   22    4    4
 -0.5731851999658949   22   22    5    5
 -0.5153288357074239   22   22    6    6
 -0.5089657931044157   22   22    7    7
 -0.5085388659824508   22   22    8    8
 -0.4780023740100561   22   22    9    9
 -0.4750803665195049   22   22   10   10
 -0.467549298546824   22   22   11   11
 -0.4632345984609834   22   22   12   12
 -0.4617417112203948   22   22   13   13
 -0.4594040498521091   22   22   14   14
 -0.4415504875395242   22   22   15   15
 -0.4411893291026439   22   22   16   16
 -0.4410168751535089   22   22   17   17
 -0.440656861914805   22   22   18   18
 -0.4374755653323544   22   22   19   19
 -0.4368851002060327   22   22   20   20
 -0.4337959771865255   22   22   21   21
 -0.4328800380855228   22   22   22   22
 -0.5827708225601123   23   23    1    1
 -0.5800578728971174   23   23    2    2
 -0.5784790579962354   23   23    3    3
 -0.5761699240345353   23   23    4    4
 -0.5727333612914207   23   23    5    5
 -0.5149226048800085   23   23    6    6
 -0.5085645782277533   23   23    7    7
 -0.5081379876500413   23   23    8    8
 -0.4776255674227941   23   23    9    9
 -0.4747058633343395   23   23   10   10
 -0.4671807320602515   23   23   11   11
 -0.4628694332282599   23   23   12   12
 -0.4613777228222999   23   23   13   13
 -0.4590419042193439   23   23   14   14
 -0.4412024157696752   23   23   15   15
 -0.4408415420319626   23   23   16   16
 -0.4406692240273075   23   23   17   17
 -0.4403094945850179   23   23   18   18
 -0.4371307058007992   23   23   19   19
 -0.4365407061348209   23   23   20   20
 -0.4334540182536433   23   23   21   21
 -0.4325388011822905   23   23   22   22
 -0.4321978332741929   23   23   23   23
 -0.5816422154542737   24   24    1    1
 -0.5789345197507237   24   24    2    2
 -0.5773587624183523   24   24    3    3
 -0.5750541003775115   24   24    4    4
 -0.5716241929592371   24   24    5    5
 -0.5139253941612709   24   24    6    6
 -0.5075796806066881   24   24    7    7
 -0.5071539161739007   24   24    8    8
 -0.476700586987165   24   24    9    9
 -0.4737865372634343   24   24   10   10
 -0.4662759793281264   24   24   11   11
 -0.461973029854594   24   24   12   12
 -0.4604842083286172   24   24   13   13
 -0.4581529133245978   24   24   14   14
 -0.4403479732302164   24   24   15   15
 -0.4399877983687154   24   24   16   16
 -0.4398158140789906   24   24   17   17
 -0.4394567812968444   24   24   18   18
 -0.4362841486266089   24   24   19   19
 -0.4356952915672775   24   24   20   20
 -0.4326145814353992   24   24   21   21
 -0.4317011367940483   24   24   22   22
 -0.4313608292120841   24   24   23   23
 -0.4305254461109012   24   24   24   24
 -0.5814396579934921   25   25    1    1
 -0.5787329052475741   25   25    2    2
 -0.5771576966742089   25   25    3    3
 -0.5748538372341396   25   25    4    4
 -0.5714251242844215   25   25    5    5
 -0.5137464191486143   25   25    6    6
 -0.5074029154948783   25   25    7    7
 -0.5069772993349639   25   25    8    8
 -0.4765345755493984   25   25    9    9
 -0.4736215406462859   25   25   10   10
 -0.4661135982700004   25   25   11   11
 -0.4618121473027594   25   25   12   12
 -0.4603238442603105   25   25   13   13
 -0.4579933611320179   25   25   14   14
 -0.4401946216251438   25   25   15   15
 -0.4398345721948846   25   25   16   16
 -0.439662647798854   25   25   17   17
 -0.4393037400502195   25   25   18   18
 -0.4361322122523619   25   25   19   19
 -0.4355435602630676   25   25   20   20
 -0.4324639229914548   25   25   21   21
 -0.4315507964580785   25   25   22   22
 -0.4312106073885569   25   25   23   23
 -0.4303755152103422   25   25   24   24
 -0.4302256365233635   25   25   25   25
 -0.5808255526341733   26   26    1    1
 -0.5781216587083322   26   26    2    2
 -0.5765481138398993   26   26    3    3
 -0.574246687691763   26   26    4    4
 -0.5708215960825728   26   26    5    5
 -0.5132038100833526   26   26    6    6
 -0.5068670063159024   26   26    7    7
 -0.5064418396835724   26   26    8    8
 -0.4760312689160749   26   26    9    9
 -0.4731213107042773   26   26   10   10
 -0.4656212980720114   26   26   11   11
 -0.46132439021437   26   26   12   12
 -0.459837659088907   26   26   13   13
 -0.4575096373719735   26   26   14   14
 -0.4397296965506896   26   26   15   15
 -0.4393700273976985   26   26   16   16
 -0.4391982845849012   26   26   17   17
 -0.4388397559077126   26   26   18   18
 -0.4356715778163829   26   26   19   19
 -0.4350835475499732   26   26   20   20
 -0.4320071629318856   26   26   21   21
 -0.4310950008251531   26   26   22   22
 -0.4307551710567694   26   26   23   23
 -0.4299209608868166   26   26   24   24
 -0.4297712404988183   26   26   25   25
 -0.4293173243985954   26   26   26   26
 -0.579610376543013   27   27    1    1
 -0.5769121395777459   27   27    2    2
 -0.5753418868063873   27   27    3    3
 -0.5730452755945397   27   27    4    4
 -0.56962734980203   27   27    5    5
 -0.5121301090433804   27   27    6    6
 -0.5058065628407836   27   27    7    7
 -0.5053822857222224   27   27    8    8
 -0.4750353385304227   27   27    9    9
 -0.4721314683972732   27   27   10   10
 -0.4646471469411147   27   27   11   11
 -0.4603592288733868   27   27   12   12
 -0.45887560821734   27   27   13   13
 -0.4565524570787021   27   27   14   14
 -0.4388097146191126   27   27   15   15
 -0.4384507979491235   27   27   16   16
 -0.4382794144486171   27   27   17   17
 -0.4379216358683803   27   27   18   18
 -0.4347600860912691   27   27   19   19
 -0.4341732860743163   27   27   20   20
 -0.4311033377244303   27   27   21   21
 -0.4301930840006509   27   27   22   22
 -0.4298539652082354   27   27   23   23
 -0.4290215003338347   27   27   24   24
 -0.4288720931838387   27   27   25   25
 -0.4284191267456785   27   27   26   26
 -0.4275228082599367   27   27   27   27
 -0.5764811245262674   28   28    1    1
 -0.5737974550425483   28   28    2    2
 -0.5722356798914161   28   28    3    3
 -0.5699514678283022   28   28    4    4
 -0.5665519950373468   28   28    5    5
 -0.5093651754924692   28   28    6    6
 -0.5030757694131488   28   28    7    7
 -0.5026537829196052   28   28    8    8
 -0.4724706755235462   28   28    9    9
 -0.4695824830625678   28   28   10   10
 -0.4621385686262947   28   28   11   11
 -0.4578738005517418   28   28   12   12
 -0.4563981897987572   28   28   13   13
 -0.4540875810949686   28   28   14   14
 -0.4364406297303478   28   28   15   15
 -0.4360836508115772   28   28   16   16
 -0.4359131925915459   28   28   17   17
 -0.4355573456181075   28   28   18   18
 -0.4324128646969322   28   28   19   19
 -0.4318292327480657   28   28   20   20
 -0.4287758587081886   28   28   21   21
 -0.4278705193431166   28   28   22   22
 -0.4275332314153785   28   28   23   23
 -0.4267052609263313   28   28   24   24
 -0.426556660408936   28   28   25   25
 -0.4261061394862419   28   28   26   26
 -0.4252146601244058   28   28   27   27
 -0.4229189734241777   28   28   28   28
 -0.5755314472180922   29   29    1    1
 -0.5728521987290993   29   29    2    2
 -0.5712929963984089   29   29    3    3
 -0.5690125472761288   29   29    4    4
 -0.5656186746722949   29   29    5    5
 -0.508526062938459   29   29    6    6
 -0.5022470178336464   29   29    7    7
 -0.5018257265076983   29   29    8    8
 -0.4716923418362261   29   29    9    9
 -0.4688089072948485   29   29   10   10
 -0.4613772557347102   29   29   11   11
 -0.4571195133081667   29   29   12   12
 -0.4556463334310396   29   29   13   13
 -0.4533395311531002   29   29   14   14
 -0.4357216508344451   29   29   15   15
 -0.435365259991787   29   29   16   16
 -0.4351950825793949   29   29   17   17
 -0.4348398218173369   29   29   18   18
 -0.4317005210175043   29   29   19   19
 -0.4311178505259946   29   29   20   20
 -0.4280695065207806   29   29   21   21
 -0.4271656585839872   29   29   22   22
 -0.4268289262940275   29   29   23   23
 -0.4260023197781476   29   29   24   24
 -0.425853964060683   29   29   25   25
 -0.4254041853123272   29   29   26   26
 -0.4245141745462259   29   29   27   27
 -0.4222222696897966   29   29   28   28
 -0.4215267136837605   29   29   29   29
 -0.5722100123192221   30   30    1    1
 -0.5695462259730488   30   30    2    2
 -0.5679960219152774   30   30    3    3
 -0.5657287334349335   30   30    4    4
 -0.562354447122975   30   30    5    5
 -0.5055913211088109   30   30    6    6
 -0.4993485128415222   30   30    7    7
 -0.4989296528192315   30   30    8    8
 -0.4689701701577236   30   30    9    9
 -0.4661033761321   30   30   10   10
 -0.4587146131872883   30   30   11   11
 -0.4544814425097852   30   30   12   12
 -0.4530167644635829   30   30   13   13
 -0.4507232749136062   30   30   14   14
 -0.433207068696023   30   30   15   15
 -0.4328527346114938   30   30   16   16
 -0.4326835393056385   30   30   17   17
 -0.4323303287799299   30   30   18   18
 -0.4292091451191086   30   30   19   19
 -0.4286298372624546   30   30   20   20
 -0.4255990854778077   30   30   21   21
 -0.4247004537148568   30   30   22   22
 -0.4243656647320524   30   30   23   23
 -0.423543828624015   30   30   24   24
 -0.4233963290784587   30   30   25   25
 -0.4229491460367994   30   30   26   26
 -0.4220642715891967   30   30   27   27
 -0.4197855934865996   30   30   28   28
 -0.4190940515861415   30   30   29   29
 -0.4166754285628897   30   30   30   30
 -0.571948073014395   31   31    1    1
 -0.5692855060637736   31   31    2    2
 -0.5677360116394663   31   31    3    3
 -0.5654697610507279   31   31    4    4
 -0.5620970193783105   31   31    5    5
 -0.5053598776941088   31   31    6    6
 -0.4991199271832776   31   31    7    7
 -0.4987012589016079   31   31    8    8
 -0.4687554907258523   31   31    9    9
 -0.4658900090261545   31   31   10   10
 -0.4585046284189244   31   31   11   11
 -0.4542733955505485   31   31   12   12
 -0.4528093879867582   31   31   13   13
 -0.4505169483223924   31   31   14   14
 -0.4330087604595759   31   31   15   15
 -0.4326545885777725   31   31   16   16
 -0.4324854707240762   31   31   17   17
 -0.4321324218867644   31   31   18   18
 -0.4290126670032465   31   31   19   19
 -0.4284336243350618   31   31   20   20
 -0.4254042599309193   31   31   21   21
 -0.4245060395326321   31   31   22   22
 -0.4241714038054358   31   31   23   23
 -0.4233499439074861   31   31   24   24
 -0.4232025118824687   31   31   25   25
 -0.4227555335467959   31   31   26   26
 -0.4218710641662013   31   31   27   27
 -0.4195934291690117   31   31   28   28
 -0.4189022038341514   31   31   29   29
 -0.4164846879785823   31   31   30   30
 -0.4162940347091681   31   31   31   31
 -0.5707691657178074   32   32    1    1
 -0.5681120868870938   32   32    2    2
 -0.5665657863021735   32   32    3    3
 -0.5643042069405638   32   32    4    4
 -0.5609384172100355   32   32    5    5
 -0.5043182229087781   32   32    6    6
 -0.4980911342704395   32   32    7    7
 -0.4976733289536356   32   32    8    8
 -0.4677892854103599   32   32    9    9
 -0.4649297100812635   32   32   10   10
 -0.4575595523229191   32   32   11   11
 -0.4533370409303858   32   32   12   12
 -0.4518760509992805   32   32   13   13
 -0.4495883365433292   32   32   14   14
 -0.4321162368000386   32   32   15   15
 -0.4317627949422276   32   32   16   16
 -0.4315940256765956   32   32   17   17
 -0.4312417045484415   32   32   18   18
 -0.4281283801469362   32   32   19   19
 -0.427550531009526   32   32   20   20
 -0.4245274107732872   32   32   21   21
 -0.4236310417993363   32   32   22   22
 -0.4232970958279397   32   32   23   23
 -0.4224773291345189   32   32   24   24
 -0.4223302009984353   32   32   25   25
 -0.421884143980704   32   32   26   26
 -0.4210014976806575   32   32   27   27
 -0.4187285573762972   32   32   28   28
 -0.4180387568046792   32   32   29   29
 -0.4156262239663038   32   32   30   30
 -0.4154359636740513   32   32   31   31
 -0.414579661306847   32   32   32   32
 -0.5684548772960407   33   33    1    1
 -0.5658085720795006   33   33    2    2
 -0.5642685412543277   33   33    3    3
 -0.5620161318816485   33   33    4    4
 -0.5586639893638136   33   33    5    5
 -0.502273372040396   33   33    6    6
 -0.4960715322767384   33   33    7    7
 -0.4956554210283344   33   33    8    8
 -0.4658925478287314   33   33    9    9
 -0.463044567173056   33   33   10   10
 -0.4557042930730996   33   33   11   11
 -0.4514989026286018   33   33   12   12
 -0.4500438365495281   33   33   13   13
 -0.4477653980520478   33   33   14   14
 -0.4303641421464564   33   33   15   15
 -0.4300121333835784   33   33   16   16
 -0.4298440484239336   33   33   17   17
 -0.4294931558465082   33   33   18   18
 -0.4263924549906469   33   33   19   19
 -0.4258169488487041   33   33   20   20
 -0.4228060864087524   33   33   21   21
 -0.4219133519274523   33   33   22   22
 -0.4215807600013362   33   33   23   23
 -0.4207643172025493   33   33   24   24
 -0.420617785624518   33   33   25   25
 -0.4201735372268973   33   33   26   26
 -0.4192944697783995   33   33   27   27
 -0.4170307455279988   33   33   28   28
 -0.4163437418795016   33   33   29   29
 -0.4139409910986555   33   33   30   30
 -0.4137515022517051   33   33   31   31
 -0.4128986719197349   33   33   32   32
 -0.4112244984128585   33   33   33   33
 -0.566260034728903   34   34    1    1
 -0.5636239470750348   34   34    2    2
 -0.5620898624126001   34   34    3    3
 -0.5598461497442104   34   34    4    4
 -0.5565069500744064   34   34    5    5
 -0.5003340607224285   34   34    6    6
 -0.4941561666797973   34   34    7    7
 -0.4937416620649488   34   34    8    8
 -0.4640937053233231   34   34    9    9
 -0.4612567209127731   34   34   10   10
 -0.45394478810549   34   34   11   11
 -0.4497556349567349   34   34   12   12
 -0.4483061869857923   34   34   13   13
 -0.4460365456928055   34   34   14   14
 -0.4287024772082543   34   34   15   15
 -0.4283518275749179   34   34   16   16
 -0.4281843916026229   34   34   17   17
 -0.4278348538450719   34   34   18   18
 -0.4247461250040497   34   34   19   19
 -0.4241728409300819   34   34   20   20
 -0.4211736036327949   34   34   21   21
 -0.4202843160594534   34   34   22   22
 -0.4199530082931643   34   34   23   23
 -0.4191397178350117   34   34   24   24
 -0.4189937520252722   34   34   25   25
 -0.4185512189006352   34   34   26   26
 -0.4176755455907619   34   34   27   27
 -0.4154205617321558   34   34   28   28
 -0.4147362106510156   34   34   29   29
 -0.4123427370527615   34   34   30   30
 -0.4121539798350116   34   34   31   31
 -0.4113044423383919   34   34   32   32
 -0.4096367329281824   34   34   33   33
 -0.40805509791298   34   34   34   34
 -0.5656836823681627   35   35    1    1
 -0.5630502777843494   35   35    2    2
 -0.5615177545482251   35   35    3    3
 -0.5592763255816932   35   35    4    4
 -0.5559405246253682   35   35    5    5
 -0.4998248093195917   35   35    6    6
 -0.4936532032782276   35   35    7    7
 -0.493239120555617   35   35    8    8
 -0.4636213401796381   35   35    9    9
 -0.4607872433164376   35   35   10   10
 -0.4534827527609057   35   35   11   11
 -0.4492978634276394   35   35   12   12
 -0.4478498907378549   35   35   13   13
 -0.4455825595374706   35   35   14   14
 -0.4282661340626314   35   35   15   15
 -0.4279158413284783   35   35   16   16
 -0.4277485757763295   35   35   17   17
 -0.4273993937862694   35   35   18   18
 -0.4243138087238119   35   35   19   19
 -0.4237411081514319   35   35   20   20
 -0.420744923546178   35   35   21   21
 -0.4198565411099835   35   35   22   22
 -0.4195255705562851   35   35   23   23
 -0.4187131078836845   35   35   24   24
 -0.4185672906412707   35   35   25   25
 -0.4181252079369274   35   35   26   26
 -0.4172504259072937   35   35   27   27
 -0.4149977372226193   35   35   28   28
 -0.4143140826895966   35   35   29   29
 -0.4119230452232857   35   35   30   30
 -0.4117344801269311   35   35   31   31
 -0.410885807308925   35   35   32   32
 -0.4092197953313377   35   35   33   33
 -0.4076397701402778   35   35   34   34
 -0.4072248650976423   35   35   35   35
 -0.5611621503192822   36   36    1    1
 -0.5585497946424721   36   36    2    2
 -0.5570295209251933   36   36    3    3
 -0.554806007789051   36   36    4    4
 -0.5514968700217181   36   36    5    5
 -0.4958296898480469   36   36    6    6
 -0.4897074136978904   36   36    7    7
 -0.4892966407548608   36   36    8    8
 -0.4599155964689633   36   36    9    9
 -0.4571041526540935   36   36   10   10
 -0.4498580471805023   36   36   11   11
 -0.4457066078332109   36   36   12   12
 -0.4442702088464106   36   36   13   13
 -0.4420210005139956   36   36   14   14
 -0.4248429859129308   36   36   15   15
 -0.4244954930824578   36   36   16   16
 -0.4243295644904835   36   36   17   17
 -0.4239831735258819   36   36   18   18
 -0.4209222516668795   36   36   19   19
 -0.4203541287128277   36   36   20   20
 -0.4173818927296383   36   36   21   21
 -0.4165006111693964   36   36   22   22
 -0.4161722860764252   36   36   23   23
 -0.4153663174501038   36   36   24   24
 -0.4152216657306765   36   36   25   25
 -0.4147831166108756   36   36   26   26
 -0.4139153267486069   36   36   27   27
 -0.4116806438936946   36   36   28   28
 -0.4110024538383965   36   36   29   29
 -0.4086305280291316   36   36   30   30
 -0.4084434701410509   36   36   31   31
 -0.4076015807984485   36   36   32   32
 -0.4059488853204976   36   36   33   33
 -0.4043814893332878   36   36   34   34
 -0.4039699006430699   36   36   35   35
 -0.4007409532481334   36   36   36   36
 -0.5605826101321986   37   37    1    1
 -0.5579729523656035   37   37    2    2
 -0.5564542487109422   37   37    3    3
 -0.5542330319078974   37   37    4    4
 -0.5509273116524542   37   37    5    5
 -0.4953176217567606   37   37    6    6
 -0.48920166838704   37   37    7    7
 -0.4887913196697499   37   37    8    8
 -0.4594406186560999   37   37    9    9
 -0.4566320783597115   37   37   10   10
 -0.4493934563012427   37   37   11   11
 -0.4452463043527621   37   37   12   12
 -0.4438113888069549   37   37   13   13
 -0.4415645033443503   37   37   14   14
 -0.4244042293371407   37   37   15   15
 -0.4240570953798736   37   37   16   16
 -0.4238913381506457   37   37   17   17
 -0.4235453049212981   37   37   18   18
 -0.4204875442292166   37   37   19   19
 -0.4199200080041217   37   37   20   20
 -0.4169508415975186   37   37   21   21
 -0.4160704701807708   37   37   22   22
 -0.4157424841655256   37   37   23   23
 -0.4149373479032691   37   37   24   24
 -0.414792845572899   37   37   25   25
 -0.414354749364683   37   37   26   26
 -0.4134878557123579   37   37   27   27
 -0.4112554807260698   37   37   28   28
 -0.4105779910715227   37   37   29   29
 -0.4082085148685374   37   37   30   30
 -0.4080216501644828   37   37   31   31
 -0.4071806302830633   37   37   32   32
 -0.4055296416262975   37   37   33   33
 -0.4039638643672276   37   37   34   34
 -0.4035527007452121   37   37   35   35
 -0.4003270880455616   37   37   36   36
 -0.3999136502622604   37   37   37   37
 -0.5518069698043871   38   38    1    1
 -0.5492381649246358   38   38    2    2
 -0.5477432358159504   38   38    3    3
 -0.5455567910507843   38   38    4    4
 -0.5423028201922395   38   38    5    5
 -0.4875636721728818   38   38    6    6
 -0.4815434609936328   38   38    7    7
 -0.4811395360802332   38   38    8    8
 -0.4522483056081403   38   38    9    9
 -0.4494837316051078   38   38   10   10
 -0.4423584265538131   38   38   11   11
 -0.4382761961944558   38   38   12   12
 -0.4368637435336956   38   38   13   13
 -0.4346520319389942   38   38   14   14
 -0.4177603934368683   38   38   15   15
 -0.417418693688047   38   38   16   16
 -0.4172555313053219   38   38   17   17
 -0.4169149150530752   38   38   18   18
 -0.4139050220749705   38   38   19   19
 -0.4133463703455671   38   38   20   20
 -0.4104236847537213   38   38   21   21
 -0.4095570951110933   38   38   22   22
 -0.4092342435528403   38   38   23   23
 -0.4084417112959967   38   38   24   24
 -0.4082994710773205   38   38   25   25
 -0.4078682330460848   38   38   26   26