 &FCI NORB=  15,NELEC=22,MS2=0,
  ORBSYM=1,1,1,1,1,1,1,1,1,1,1,1,1,1,1,
  ISYM=1,
 &END
 -1.303997390058523    1    1    1    1
 -1.281281749074909    2    2    1    1
 -1.258961814669568    2    2    2    2
 -1.173456489624016    3    3    1    1
 -1.15301487177155    3    3    2    2
 -1.055983810656953    3    3    3    3
 -1.104082954561698    4    4    1    1
 -1.084849824033097    4    4    2    2
 -0.9935551389834743    4    4    3    3
 -0.9348171858679726    4    4    4    4
 -1.099345290035614    5    5    1    1
 -1.080194689646486    5    5    2    2
 -0.9892917537756659    5    5    3    3
 -0.9308058475880338    5    5    4    4
 -0.9268117221225782    5    5    5    5
 -1.097632984309725    6    6    1    1
 -1.078512212294811    6    6    2    2
 -0.9877508639843343    6    6    3    3
 -0.9293560536088702    6    6    4    4
 -0.9253681492679025    6    6    5    5
 -0.9239268248770052    6    6    6    6
 -1.093382434222023    7    7    1    1
 -1.074335706810657    7    7    2    2
 -0.9839258290395467    7    7    3    3
 -0.9257571507773763    7    7    4    4
 -0.9217846894737337    7    7    5    5
 -0.9203489465673618    7    7    6    6
 -0.9167849234818051    7    7    7    7
 -1.091823624495373    8    8    1    1
 -1.072804051557155    8    8    2    2
 -0.9825230690311513    8    8    3    3
 -0.9244373204911195    8    8    4    4
 -0.9204705226325126    8    8    5    5
 -0.9190368266311731    8    8    6    6
 -0.9154778846898511    8    8    7    7
 -0.9141727093124885    8    8    8    8
 -1.087364249900428    9    9    1    1
 -1.068422359289707    9    9    2    2
 -0.9785101146356918    9    9    3    3
 -0.9206616078126888    9    9    4    4
 -0.9167110116895975    9    9    5    5
 -0.915283171384528    9    9    6    6
 -0.9117387653580936    9    9    7    7
 -0.9104389207555826    9    9    8    8
 -0.9067203822459003    9    9    9    9
 -1.086096596202105   10   10    1    1
 -1.067176788125077   10   10    2    2
 -0.9773693635343216   10   10    3    3
 -0.9195882967376237   10   10    4    4
 -0.9156423062356814   10   10    5    5
 -0.9142161305126906   10   10    6    6
 -0.9106758565693259   10   10    7    7
 -0.9093775273309792   10   10    8    8
 -0.9056633239087292   10   10    9    9
 -0.9046074978944992   10   10   10   10
 -1.083882972426762   11   11    1    1
 -1.065001725686848   11   11    2    2
 -0.9753773417675865   11   11    3    3
 -0.9177140412392604   11   11    4    4
 -0.913776093243319   11   11    5    5
 -0.9123528242751227   11   11    6    6
 -0.90881976592805   11   11    7    7
 -0.9075240828746558   11   11    8    8
 -0.9038174495424245   11   11    9    9
 -0.9027637754560948   11   11   10   10
 -0.9009238107937839   11   11   11   11
 -1.077292567985243   12   12    1    1
 -1.058526126123293   12   12    2    2
 -0.9694466912002568   12   12    3    3
 -0.9121340046049679   12   12    4    4
 -0.9082200007714712   12   12    5    5
 -0.9068053857985566   12   12    6    6
 -0.9032938097369474   12   12    7    7
 -0.902006004909863   12   12    8    8
 -0.8983219092624161   12   12    9    9
 -0.8972746418994644   12   12   10   10
 -0.8954458648944849   12   12   11   11
 -0.8900012269074822   12   12   12   12
 -1.077199423174593   13   13    1    1
 -1.058434603895705   13   13    2    2
 -0.9693628709538624   13   13    3    3
 -0.9120551397249236   13   13    4    4
 -0.9081414743038108   13   13    5    5
 -0.906726981641258   13   13    6    6
 -0.9032157091973448   13   13    7    7
 -0.9019280157163703   13   13    8    8
 -0.8982442386029983   13   13    9    9
 -0.8971970617888195   13   13   10   10
 -0.8953684429034567   13   13   11   11
 -0.8899242756704435   13   13   12   12
 -0.8898473310867586   13   13   13   13
 -1.057487953830914   14   14    1    1
 -1.039066508445474   14   14    2    2
 -0.9516246823672069   14   14    3    3
 -0.8953656145175576   14   14    4    4
 -0.8915235645228088   14   14    5    5
 -0.8901349553950546   14   14    6    6
 -0.8866879350642103   14   14    7    7
 -0.8854238048436945   14   14    8    8
 -0.8818074364738447   14   14    9    9
 -0.8807794217509428   14   14   10   10
 -0.878984264418125   14   14   11   11
 -0.873639718975847   14   14   12   12
 -0.8735641823866057   14   14   13   13
 -0.8575789959574271   14   14   14   14
 -1.028546011089929   15   15    1    1
 -1.010628734490167   15   15    2    2
 -0.9255800669479912   15   15    3    3
 -0.8708607298484341   15   15    4    4
 -0.8671238313029791   15   15    5    5
 -0.8657732264340153   15   15    6    6
 -0.8624205461518504   15   15    7    7
 -0.8611910133793025   15   15    8    8
 -0.8576736198733378   15   15    9    9
 -0.8566737404527238   15   15   10   10
 -0.854927714025416   15   15   11   11
 -0.8497294411979764   15   15   12   12
 -0.8496559719378548   15   15   13   13
 -0.8341082773483339   15   15   14   14
 -0.8112799189586771   15   15   15   15
 -0.6519986950292616    1    1  0  0
 -0.6294809073347842    2    2  0  0
 -0.5279919053284763    3    3  0  0
 -0.4674085929339863    4    4  0  0
 -0.4634058610612891    5    5  0  0
 -0.4619634124385026    6    6  0  0
 -0.4583924617409025    7    7  0  0
 -0.4570863546562443    8    8  0  0
 -0.4533601911229502    9    9  0  0
 -0.4523037489472496   10   10  0  0
 -0.450461905396892   11   11  0  0
 -0.4450006134537411   12   12  0  0
 -0.4449236655433793   13   13  0  0
 -0.4287894979787136   14   14  0  0
 -0.4056399594793386   15   15  0  0
 -1754.264669070822  0  0  0  0
