 &FCI NORB=  46,NELEC=58,MS2=0,
  ORBSYM=1,1,1,1,1,1,1,1,1,1,1,1,1,1,1,1,1,1,1,1,1,1,1,1,1,1,1,1,1,1,1,1,1,1,1,1,1,1,1,1,1,1,1,1,1,1,
  ISYM=1,
 &END
 -0.4253175126614967    1    1    1    1
 -0.4253332956486571    2    2    1    1
 -0.4253490792215039    2    2    2    2
 -0.4254676255474966    3    3    1    1
 -0.4254834141051536    3    3    2    2
 -0.4256177914148055    3    3    3    3
 -0.4254835231862058    4    4    1    1
 -0.4254993123338038    4    4    2    2
 -0.4256336946644768    4    4    3    3
 -0.4256495985083744    4    4    4    4
 -0.4276123879730325    5    5    1    1
 -0.427628256120071    5    5    2    2
 -0.4277633108194638    5    5    3    3
 -0.4277792942366738    5    5    4    4
 -0.4299196456872174    5    5    5    5
 -0.4276559361715547    6    6    1    1
 -0.427671805934611    6    6    2    2
 -0.4278068743880226    6    6    3    3
 -0.4278228594329895    6    6    4    4
 -0.4299634288576904    6    6    5    5
 -0.4300072164870571    6    6    6    6
 -0.432940261162433    7    7    1    1
 -0.4329563270200093    7    7    2    2
 -0.4330930644450017    7    7    3    3
 -0.433109247008968    7    7    4    4
 -0.4352762663518132    7    7    5    5
 -0.4353205950424504    7    7    6    6
 -0.4406996282905802    7    7    7    7
 -0.4329439232112943    8    8    1    1
 -0.4329599892047645    8    8    2    2
 -0.4330967277863579    8    8    3    3
 -0.4331129104872053    8    8    4    4
 -0.4352799481599021    8    8    5    5
 -0.4353242772254958    8    8    6    6
 -0.4407033559724723    8    8    7    7
 -0.4407070836858954    8    8    8    8
 -0.4332011279083859    9    9    1    1
 -0.4332172034463925    9    9    2    2
 -0.4333540232620755    9    9    3    3
 -0.433370215576793    9    9    4    4
 -0.4355385406500936    9    9    5    5
 -0.4355828960508391    9    9    6    6
 -0.4409651704179539    9    9    7    7
 -0.4409689003459487    9    9    8    8
 -0.4412308725468727    9    9    9    9
 -0.4332052434422687   10   10    1    1
 -0.4332213191329973   10   10    2    2
 -0.4333581402485076   10   10    3    3
 -0.4333743327170567   10   10    4    4
 -0.435542678390062   10   10    5    5
 -0.4355870342121965   10   10    6    6
 -0.4409693597124479   10   10    7    7
 -0.4409730896758781   10   10    8    8
 -0.4412350643656124   10   10    9    9
 -0.4412392562241757   10   10   10   10
 -0.4377796326952774   11   11    1    1
 -0.4377958781357217   11   11    2    2
 -0.4379341440006892   11   11    3    3
 -0.4379505074520582   11   11    4    4
 -0.4401417495633997   11   11    5    5
 -0.4401865737565873   11   11    6    6
 -0.4456257334071572   11   11    7    7
 -0.4456295027567788   11   11    8    8
 -0.4458942437431437   11   11    9    9
 -0.4458984798652358   11   11   10   10
 -0.4506069021318289   11   11   11   11
 -0.4416458959879475   12   12    1    1
 -0.4416622849004617   12   12    2    2
 -0.4418017718643531   12   12    3    3
 -0.4418182798300088   12   12    4    4
 -0.444028873958456   12   12    5    5
 -0.4440740940177822   12   12    6    6
 -0.4495612897616955   12   12    7    7
 -0.4495650924004356   12   12    8    8
 -0.4498321714543606   12   12    9    9
 -0.4498364449878855   12   12   10   10
 -0.4545864498198062   12   12   11   11
 -0.4586011429965144   12   12   12   12
 -0.441649480274346   13   13    1    1
 -0.4416658693198687   13   13    2    2
 -0.4418053574158008   13   13    3    3
 -0.4418218655154311   13   13    4    4
 -0.4440324775845012   13   13    5    5
 -0.4440776980108219   13   13    6    6
 -0.4495649382874282   13   13    7    7
 -0.4495687409570294   13   13    8    8
 -0.4498358221785004   13   13    9    9
 -0.4498400957467084   13   13   10   10
 -0.4545901391284671   13   13   11   11
 -0.4586048648874098   13   13   12   12
 -0.458608586808511   13   13   13   13
 -0.4426969066991925   14   14    1    1
 -0.4427133346133657   14   14    2    2
 -0.442853153522588   14   14    3    3
 -0.4428697007732204   14   14    4    4
 -0.445085555582517   14   14    5    5
 -0.4451308832546776   14   14    6    6
 -0.4506311372009969   14   14    7    7
 -0.4506349488891   14   14    8    8
 -0.4509026635267561   14   14    9    9
 -0.4509069472302601   14   14   10   10
 -0.4556682559280204   14   14   11   11
 -0.4596925031061796   14   14   12   12
 -0.4596962338542775   14   14   13   13
 -0.460786460389679   14   14   14   14
 -0.4427025945858306   15   15    1    1
 -0.4427190227110741   15   15    2    2
 -0.4428588434167265   15   15    3    3
 -0.4428753908799625   15   15    4    4
 -0.4450912741591461   15   15    5    5
 -0.4451366024136886   15   15    6    6
 -0.4506369270287215   15   15    7    7
 -0.4506407387657982   15   15    8    8
 -0.4509084568431226   15   15    9    9
 -0.4509127406016648   15   15   10   10
 -0.4556741104739753   15   15   11   11
 -0.4596984093567237   15   15   12   12
 -0.4597021401527553   15   15   13   13
 -0.4607923806956749   15   15   14   14
 -0.4607983010777364   15   15   15   15
 -0.4429321690880478   16   16    1    1
 -0.4429486057325064   16   16    2    2
 -0.4430884989456827   16   16    3    3
 -0.4431050549900195   16   16    4    4
 -0.4453220873708958   16   16    5    5
 -0.4453674391315384   16   16    6    6
 -0.450870616077461   16   16    7    7
 -0.4508744297912093   16   16    8    8
 -0.4511422867004382   16   16    9    9
 -0.4511465726804305   16   16   10   10
 -0.455910411680168   16   16   11   11
 -0.4599367974637481   16   16   12   12
 -0.4599405301944772   16   16   13   13
 -0.4610313361088968   16   16   14   14
 -0.4610372595611205   16   16   15   15
 -0.4612763419624024   16   16   16   16
 -0.4429338693565867   17   17    1    1
 -0.4429503060641402   17   17    2    2
 -0.4430901998143197   17   17    3    3
 -0.4431067559222097   17   17    4    4
 -0.4453237968135322   17   17    5    5
 -0.4453691487482651   17   17    6    6
 -0.4508723468190444   17   17    7    7
 -0.4508761605474323   17   17    8    8
 -0.4511440184848744   17   17    9    9
 -0.4511483044813191   17   17   10   10
 -0.4559121617678421   17   17   11   11
 -0.4599385630073713   17   17   12   12
 -0.4599422957524292   17   17   13   13
 -0.461033105854088   17   17   14   14
 -0.4610390293290499   17   17   15   15
 -0.4612781126480892   17   17   16   16
 -0.461279883340573   17   17   17   17
 -0.4497702494298693   18   18    1    1
 -0.4497869398267153   18   18    2    2
 -0.4499289927408521   18   18    3    3
 -0.4499458043808968   18   18    4    4
 -0.4521970637757469   18   18    5    5
 -0.4522431156864453   18   18    6    6
 -0.4578312518399346   18   18    7    7
 -0.4578351244306009   18   18    8    8
 -0.4581071165713466   18   18    9    9
 -0.4581114687192029   18   18   10   10
 -0.4629488528711988   18   18   11   11
 -0.4670373988485891   18   18   12   12
 -0.4670411892060033   18   18   13   13
 -0.4681488352124294   18   18   14   14
 -0.4681548501121592   18   18   15   15
 -0.4683976235180291   18   18   16   16
 -0.4683994215399354   18   18   17   17
 -0.4756288449218145   18   18   18   18
 -0.4507582421111468   19   19    1    1
 -0.4507749691711334   19   19    2    2
 -0.4509173341273399   19   19    3    3
 -0.4509341826968554   19   19    4    4
 -0.4531903873449957   19   19    5    5
 -0.4532365404161217   19   19    6    6
 -0.4588369518093108   19   19    7    7
 -0.4588408329067453   19   19    8    8
 -0.4591134225219677   19   19    9    9
 -0.4591177842300166   19   19   10   10
 -0.4639657944742112   19   19   11   11
 -0.4680633216003277   19   19   12   12
 -0.4680671202838715   19   19   13   13
 -0.4691771994128734   19   19   14   14
 -0.4691832275252977   19   19   15   15
 -0.4694265342219945   19   19   16   16
 -0.469428336193545   19   19   17   17
 -0.4766736401664596   19   19   18   18
 -0.4777207304718752   19   19   19   19
 -0.4507631825275142   20   20    1    1
 -0.4507799097708334   20   20    2    2
 -0.4509222762873933   20   20    3    3
 -0.4509391250415731   20   20    4    4
 -0.453195354418247   20   20    5    5
 -0.4532415079952214   20   20    6    6
 -0.4588419807702369   20   20    7    7
 -0.4588458619102092   20   20    8    8
 -0.4591184545130779   20   20    9    9
 -0.4591228162689321   20   20   10   10
 -0.4639708796484595   20   20   11   11
 -0.4680684516844371   20   20   12   12
 -0.4680722504096154   20   20   13   13
 -0.4691823417053457   20   20   14   14
 -0.4691883698838395   20   20   15   15
 -0.4694316792472349   20   20   16   16
 -0.4694334812385355   20   20   17   17
 -0.476678864621686   20   20   18   18
 -0.4777259664034575   20   20   19   19
 -0.477731202392427   20   20   20   20
 -0.4549352258718332   21   21    1    1
 -0.4549521079343277   21   21    2    2
 -0.4550957921256686   21   21    3    3
 -0.4551127968236688   21   21    4    4
 -0.4573899087549059   21   21    5    5
 -0.4574364895067942   21   21    6    6
 -0.4630887975160784   21   21    7    7
 -0.4630927145779821   21   21    8    8
 -0.463367830164534   21   21    9    9
 -0.4633722322906652   21   21   10   10
 -0.468265166971442   21   21   11   11
 -0.4724006641281998   21   21   12   12
 -0.4724044980125186   21   21   13   13
 -0.473524863769832   21   21   14   14
 -0.4735309477421948   21   21   15   15
 -0.4737765090579446   21   21   16   16
 -0.4737783277275945   21   21   17   17
 -0.4810907708323292   21   21   18   18
 -0.4821475640755795   21   21   19   19
 -0.4821528485262995   21   21   20   20
 -0.4866154192521502   21   21   21   21
 -0.4549366208614214   22   22    1    1
 -0.4549535029756821   22   22    2    2
 -0.4550971876076088   22   22    3    3
 -0.4551141923577512   22   22    4    4
 -0.4573913112714053   22   22    5    5
 -0.4574378921661263   22   22    6    6
 -0.4630902175073523   22   22    7    7
 -0.4630941345812671   22   22    8    8
 -0.4633692510114191   22   22    9    9
 -0.4633736531510487   22   22   10   10
 -0.4682666028352646   22   22   11   11
 -0.4724021126728945   22   22   12   12
 -0.4724059465689694   22   22   13   13
 -0.4735263157617137   22   22   14   14
 -0.4735323997527321   22   22   15   15
 -0.4737779618214583   22   22   16   16
 -0.4737797804966848   22   22   17   17
 -0.4810922460239127   22   22   18   18
 -0.4821490425076586   22   22   19   19
 -0.4821543269745825   22   22   20   20
 -0.4866169113842268   22   22   21   21
 -0.4866184035208788   22   22   22   22
 -0.4565313497245708   23   23    1    1
 -0.4565482910171734   23   23    2    2
 -0.456692479319324   23   23    3    3
 -0.4567095436776946   23   23    4    4
 -0.4589946447741185   23   23    5    5
 -0.4590413889528969   23   23    6    6
 -0.4647135278812297   23   23    7    7
 -0.4647174586860041   23   23    8    8
 -0.4649935395056815   23   23    9    9
 -0.4649979570765136   23   23   10   10
 -0.4699080584423694   23   23   11   11
 -0.4740580648419367   23   23   12   12
 -0.4740619121773006   23   23   13   13
 -0.4751862086975168   23   23   14   14
 -0.4751923140152775   23   23   15   15
 -0.4754387368740583   23   23   16   16
 -0.4754405619244451   23   23   17   17
 -0.4827786604724111   23   23   18   18
 -0.4838391614366885   23   23   19   19
 -0.4838444644277135   23   23   20   20
 -0.4883226919222096   23   23   21   21
 -0.4883241892893777   23   23   22   22
 -0.490035954496934   23   23   23   23
 -0.4565330476921546   24   24    1    1
 -0.4565499890477666   24   24    2    2
 -0.4566941778861938   24   24    3    3
 -0.4567112423080315   24   24    4    4
 -0.4589963519033846   24   24    5    5
 -0.4590430962560176   24   24    6    6
 -0.4647152562806191   24   24    7    7
 -0.4647191871000133   24   24    8    8
 -0.4649952689465123   24   24    9    9
 -0.4649996865337747   24   24   10   10
 -0.4699098061616686   24   24   11   11
 -0.4740598279962687   24   24   12   12
 -0.4740636753459419   24   24   13   13
 -0.4751879760477309   24   24   14   14
 -0.4751940813881989   24   24   15   15
 -0.4754405051634951   24   24   16   16
 -0.4754423302206698   24   24   17   17
 -0.4827804560610736   24   24   18   18
 -0.4838409609696502   24   24   19   19
 -0.4838462639803985   24   24   20   20
 -0.4883245081306732   24   24   21   21
 -0.4883260055034107   24   24   22   22
 -0.4900377770774997   24   24   23   23
 -0.4900395996648442   24   24   24   24
 -0.4583910425565378   25   25    1    1
 -0.4584080528599552   25   25    2    2
 -0.4585528285170643   25   25    3    3
 -0.4585699623875614   25   25    4    4
 -0.4608643719052623   25   25    5    5
 -0.4609113064977203   25   25    6    6
 -0.466606551037778   25   25    7    7
 -0.4666104978547922   25   25    8    8
 -0.4668877032971745   25   25    9    9
 -0.4668921388631012   25   25   10   10
 -0.4718222416600083   25   25   11   11
 -0.4759891532231719   25   25   12   12
 -0.4759930162307607   25   25   13   13
 -0.4771218926033374   25   25   14   14
 -0.4771280227912755   25   25   15   15
 -0.4773754494602533   25   25   16   16
 -0.4773772819450322   25   25   17   17
 -0.4847452724364062   25   25   18   18
 -0.4858100933801171   25   25   19   19
 -0.4858154179730199   25   25   20   20
 -0.490311887648642   25   25   21   21
 -0.490313391115376   25   25   22   22
 -0.4920321292449198   25   25   23   23
 -0.492033959249817   25   25   24   24
 -0.494036435464868   25   25   25   25
 -0.4583924011934863   26   26    1    1
 -0.458409411547321   26   26    2    2
 -0.4585541876335344   26   26    3    3
 -0.458571321554815   26   26    4    4
 -0.460865737872975   26   26    5    5
 -0.4609126726045436   26   26    6    6
 -0.4666079340248824   26   26    7    7
 -0.4666118808535947   26   26    8    8
 -0.4668890871175933   26   26    9    9
 -0.4668935226966667   26   26   10   10
 -0.4718236401060318   26   26   11   11
 -0.4759905640196112   26   26   12   12
 -0.4759944270386497   26   26   13   13
 -0.4771233067571319   26   26   14   14
 -0.4771294369632395   26   26   15   15
 -0.4773768643655714   26   26   16   16
 -0.4773786968557818   26   26   17   17
 -0.4847467091853315   26   26   18   18
 -0.4858115332850925   26   26   19   19
 -0.4858168578937769   26   26   20   20
 -0.4903133408966006   26   26   21   21
 -0.4903148443677908   26   26   22   22
 -0.4920335875915466   26   26   23   23
 -0.4920354176018677   26   26   24   24
 -0.4940378997521093   26   26   25   25
 -0.4940393640436905   26   26   26   26
 -0.4584566353110429   27   27    1    1
 -0.4584736480485233   27   27    2    2
 -0.4586184444220802   27   27    3    3
 -0.4586355807443219   27   27    4    4
 -0.4609303185769902   27   27    5    5
 -0.4609772598854809   27   27    6    6
 -0.4666733193777132   27   27    7    7
 -0.4666772667594911   27   27    8    8
 -0.4669545118681557   27   27    9    9
 -0.4669589480687829   27   27   10   10
 -0.4718897563310949   27   27   11   11
 -0.4760572641519988   27   27   12   12
 -0.4760611277123587   27   27   13   13
 -0.477190165619747   27   27   14   14
 -0.477196296684875   27   27   15   15
 -0.4774437587589876   27   27   16   16
 -0.4774455915059833   27   27   17   17
 -0.4848146363085165   27   27   18   18
 -0.485879609621127   27   27   19   19
 -0.4858849349759442   27   27   20   20
 -0.490382048066913   27   27   21   21
 -0.4903835517487833   27   27   22   22
 -0.4921025358184911   27   27   23   23
 -0.4921043660852499   27   27   24   24
 -0.4941071288415257   27   27   25   25
 -0.4941085933382969   27   27   26   26
 -0.4941778323339425   27   27   27   27
 -0.4584578980934103   28   28    1    1
 -0.4584749108777509   28   28    2    2
 -0.4586197076501379   28   28    3    3
 -0.4586368440195802   28   28    4    4
 -0.4609315881729216   28   28    5    5
 -0.4609785296107084   28   28    6    6
 -0.4666746047922838   28   28    7    7
 -0.4666785521849345   28   28    8    8
 -0.4669557980572488   28   28    9    9
 -0.466960234270095   28   28   10   10
 -0.4718910561139266   28   28   11   11
 -0.4760585754138995   28   28   12   12
 -0.4760624389849013   28   28   13   13
 -0.4771914800021348   28   28   14   14
 -0.4771976110841503   28   28   15   15
 -0.4774450738398777   28   28   16   16
 -0.4774469065919214   28   28   17   17
 -0.484815971691903   28   28   18   18
 -0.4858809479378978   28   28   19   19
 -0.4858862733073833   28   28   20   20
 -0.4903833987852927   28   28   21   21
 -0.4903849024713047   28   28   22   22
 -0.4921038912758176   28   28   23   23
 -0.4921057215476177   28   28   24   24
 -0.4941084898203444   28   28   25   25
 -0.4941099543211494   28   28   26   26
 -0.4941791935075083   28   28   27   27
 -0.4941805546848233   28   28   28   28
 -0.4586679658363043   29   29    1    1
 -0.4586849864159892   29   29    2    2
 -0.4588298495349945   29   29    3    3
 -0.4588469937564085   29   29    4    4
 -0.4611427893732034   29   29    5    5
 -0.4611897523197959   29   29    6    6
 -0.4668884374720181   29   29    7    7
 -0.4668923866733841   29   29    8    8
 -0.4671697595811685   29   29    9    9
 -0.46717419782671   29   29   10   10
 -0.4721072789982131   29   29   11   11
 -0.4762767078767459   29   29   12   12
 -0.4762805732180556   29   29   13   13
 -0.4774101315676312   29   29   14   14
 -0.4774162654589396   29   29   15   15
 -0.4776638416033614   29   29   16   16
 -0.4776656751951815   29   29   17   17
 -0.4850381168383074   29   29   18   18
 -0.4861035810618399   29   29   19   19
 -0.4861089088714368   29   29   20   20
 -0.4906080949551349   29   29   21   21
 -0.4906095993301435   29   29   22   22
 -0.4923293757840778   29   29   23   23
 -0.4923312068945178   29   29   24   24
 -0.494334892845863   29   29   25   25
 -0.4943363580177098   29   29   26   26
 -0.4944056289298164   29   29   27   27
 -0.4944069907308298   29   29   28   28
 -0.4946335305309853   29   29   29   29
 -0.4609488783700046   30   30    1    1
 -0.460965983591427   30   30    2    2
 -0.46111156710106   30   30    3    3
 -0.4611287965790701   30   30    4    4
 -0.4634360089709336   30   30    5    5
 -0.4634832054598302   30   30    6    6
 -0.4692102296358286   30   30    7    7
 -0.4692141984762006   30   30    8    8
 -0.4694929507332944   30   30    9    9
 -0.4694974110498124   30   30   10   10
 -0.4744550239687055   30   30   11   11
 -0.4786451870238013   30   30   12   12
 -0.4786490715870887   30   30   13   13
 -0.4797842471237996   30   30   14   14
 -0.479790411518371   30   30   15   15
 -0.4800392188356084   30   30   16   16
 -0.4800410615457076   30   30   17   17
 -0.4874501656457746   30   30   18   18
 -0.488520928322399   30   30   19   19
 -0.4885262826266904   30   30   20   20
 -0.4930478427384308   30   30   21   21
 -0.4930493545945545   30   30   22   22
 -0.4947776833345893   30   30   23   23
 -0.4947795235509688   30   30   24   24
 -0.4967931736435675   30   30   25   25
 -0.4967946461015756   30   30   26   26
 -0.4968642614913947   30   30   27   27
 -0.496865630064516   30   30   28   28
 -0.497093296425731   30   30   29   29
 -0.4995652945042725   30   30   30   30
 -0.4609512305173591   31   31    1    1
 -0.4609683358260667   31   31    2    2
 -0.4611139200785888   31   31    3    3
 -0.4611311496445181   31   31    4    4
 -0.4634383738097121   31   31    5    5
 -0.4634855705394448   31   31    6    6
 -0.4692126239395187   31   31    7    7
 -0.469216592800143   31   31    8    8
 -0.4694953464796642   31   31    9    9
 -0.4694998068189425   31   31   10   10
 -0.4744574450357303   31   31   11   11
 -0.4786476294725484   31   31   12   12
 -0.4786515140556581   31   31   13   13
 -0.4797866953849856   31   31   14   14
 -0.4797928598110129   31   31   15   15
 -0.4800416683978736   31   31   16   16
 -0.480043511117376   31   31   17   17
 -0.4874526530248994   31   31   18   18
 -0.4885234211654519   31   31   19   19
 -0.4885287754970655   31   31   20   20
 -0.4930503586815937   31   31   21   21
 -0.4930518705454321   31   31   22   22
 -0.4947802081048482   31   31   23   23
 -0.494782048330618   31   31   24   24
 -0.4967957086985464   31   31   25   25
 -0.4967971811640683   31   31   26   26
 -0.4968667969091234   31   31   27   27
 -0.4968681654892284   31   31   28   28
 -0.4970958330121878   31   31   29   29
 -0.4995678437049346   31   31   30   30
 -0.4995703929186047   31   31   31   31
 -0.4610687851958453   32   32    1    1
 -0.4610858948668561   32   32    2    2
 -0.4612315162471888   32   32    3    3
 -0.4612487502071103   32   32    4    4
 -0.4635565627751049   32   32    5    5
 -0.463603771541244   32   32    6    6
 -0.4693322854904531   32   32    7    7
 -0.4693362553632411   32   32    8    8
 -0.4696150801322769   32   32    9    9
 -0.469619541609059   32   32   10   10
 -0.4745784441538884   32   32   11   11
 -0.4787696971978643   32   32   12   12
 -0.4787735827716447   32   32   13   13
 -0.4799090536020461   32   32   14   14
 -0.479915219600164   32   32   15   15
 -0.4801640916397535   32   32   16   16
 -0.4801659348291977   32   32   17   17
 -0.4875769662626344   32   32   18   18
 -0.4886480074772047   32   32   19   19
 -0.4886533631743135   32   32   20   20
 -0.4931760994813899   32   32   21   21
 -0.4931776117307933   32   32   22   22
 -0.4949063900617111   32   32   23   23
 -0.4949082307567868   32   32   24   24
 -0.496922404661032   32   32   25   25
 -0.4969238775020713   32   32   26   26
 -0.496993511000971   32   32   27   27
 -0.4969948799300999   32   32   28   28
 -0.4972226055142613   32   32   29   29
 -0.499695246634704   32   32   30   30
 -0.4996977964984907   32   32   31   31
 -0.4998252325696379   32   32   32   32
 -0.4610709082014373   33   33    1    1
 -0.4610880179512302   33   33    2    2
 -0.461233640002081   33   33    3    3
 -0.4612508740413568   33   33    4    4
 -0.4635586972357463   33   33    5    5
 -0.4636059062192597   33   33    6    6
 -0.4693344465455898   33   33    7    7
 -0.4693384164366572   33   33    8    8
 -0.4696172424895504   33   33    9    9
 -0.4696217039868754   33   33   10   10
 -0.4745806293651262   33   33   11   11
 -0.4787719017078573   33   33   12   12
 -0.4787757872995291   33   33   13   13
 -0.4799112633582412   33   33   14   14
 -0.4799174293847507   33   33   15   15
 -0.4801663025702792   33   33   16   16
 -0.4801681457682104   33   33   17   17
 -0.4875792113259724   33   33   18   18
 -0.4886502574721853   33   33   19   19
 -0.4886556131939546   33   33   20   20
 -0.4931783703261113   33   33   21   21
 -0.4931798825824779   33   33   22   22
 -0.4949086688736094   33   33   23   23
 -0.4949105095771607   33   33   24   24
 -0.4969246927557324   33   33   25   25
 -0.4969261656035535   33   33   26   26
 -0.4969957994230827   33   33   27   27
 -0.4969971683585149   33   33   28   28
 -0.4972248949912459   33   33   29   29
 -0.4996975474970416   33   33   30   30
 -0.4997000973725693   33   33   31   31
 -0.4998275340304998   33   33   32   32
 -0.4998298355019589   33   33   33   33
 -0.4631224323457959   34   34    1    1
 -0.4631396182250174   34   34    2    2
 -0.4632858882177531   34   34    3    3
 -0.4633031989394806   34   34    4    4
 -0.465621290738807   34   34    5    5
 -0.4656687097775803   34   34    6    6
 -0.4714227391091423   34   34    7    7
 -0.4714267266641466   34   34    8    8
 -0.4717067933469936   34   34    9    9
 -0.4717112746956459   34   34   10   10
 -0.4766922646955472   34   34   11   11
 -0.4809021860058314   34   34   12   12
 -0.4809060888863518   34   34   13   13
 -0.4820466172190381   34   34   14   14
 -0.4820528106811373   34   34   15   15
 -0.482302791222042   34   34   16   16
 -0.482304642621239   34   34   17   17
 -0.489748683540614   34   34   18   18
 -0.4908244952814232   34   34   19   19
 -0.4908298748333504   34   34   20   20
 -0.4953727558668217   34   34   21   21
 -0.4953742748519374   34   34   22   22
 -0.4971107533369454   34   34   23   23
 -0.4971126022306637   34   34   24   24
 -0.4991357474698395   34   34   25   25
 -0.4991372268710622   34   34   26   26
 -0.499207170524631   34   34   27   27
 -0.4992085455511092   34   34   28   28
 -0.4994372854481278   34   34   29   29
 -0.5019209399629985   34   34   30   30
 -0.5019235011841372   34   34   31   31
 -0.5020515048684752   34   34   32   32
 -0.5020538165802773   34   34   33   33
 -0.5042876932100122   34   34   34   34
 -0.4661527665466158   35   35    1    1
 -0.4661700648776512   35   35    2    2
 -0.4663172919541525   35   35    3    3
 -0.466334715944572   35   35    4    4
 -0.4686679756398359   35   35    5    5
 -0.4687157049540892   35   35    6    6
 -0.4745073844417613   35   35    7    7
 -0.4745113980884067   35   35    8    8
 -0.474793297322623   35   35    9    9
 -0.4747978079939406   35   35   10   10
 -0.4798113899464153   35   35   11   11
 -0.4840488579001748   35   35   12   12
 -0.4840527863182885   35   35   13   13
 -0.4852007774335398   35   35   14   14
 -0.4852070114211214   35   35   15   15
 -0.4854586276517051   35   35   16   16
 -0.4854604911651032   35   35   17   17
 -0.4929532404393639   35   35   18   18
 -0.4940360915047323   35   35   19   19
 -0.4940415062565095   35   35   20   20
 -0.4986141125781649   35   35   21   21
 -0.4986156415024073   35   35   22   22
 -0.5003634822315532   35   35   23   23
 -0.5003653432230788   35   35   24   24
 -0.5024017264437974   35   35   25   25
 -0.5024032155251388   35   35   26   26
 -0.5024736168387792   35   35   27   27
 -0.5024750008624241   35   35   28   28
 -0.5027052374658958   35   35   29   29
 -0.505205143197926   35   35   30   30
 -0.505207721177821   35   35   31   31
 -0.5053365624245731   35   35   32   32
 -0.5053388892625251   35   35   33   33
 -0.5075873827457715   35   35   34   34
 -0.5109086630345455   35   35   35   35
 -0.4674406276096074   36   36    1    1
 -0.4674579737315144   36   36    2    2
 -0.467605607558834   36   36    3    3
 -0.4676230796872899   36   36    4    4
 -0.4699627855832995   36   36    5    5
 -0.4700106467614605   36   36    6    6
 -0.4758183271806659   36   36    7    7
 -0.4758223519159921   36   36    8    8
 -0.4761050299658102   36   36    9    9
 -0.4761095530989609   36   36   10   10
 -0.4811369862981642   36   36   11   11
 -0.4853861612938529   36   36   12   12
 -0.4853901005651827   36   36   13   13
 -0.4865412632867487   36   36   14   14
 -0.4865475144972463   36   36   15   15
 -0.4867998258792253   36   36   16   16
 -0.4868016945410352   36   36   17   17
 -0.4943151443682854   36   36   18   18
 -0.4954009870746439   36   36   19   19
 -0.4954064167859976   36   36   20   20
 -0.4999916560513158   36   36   21   21
 -0.4999931891995855   36   36   22   22
 -0.5017458587663592   36   36   23   23
 -0.5017477248993292   36   36   24   24
 -0.5037897341269011   36   36   25   25
 -0.5037912273221939   36   36   26   26
 -0.5038618231366873   36   36   27   27
 -0.5038632109840361   36   36   28   28
 -0.5040940836724528   36   36   29   29
 -0.5066008960056756   36   36   30   30
 -0.5066034811078709   36   36   31   31
 -0.5067326783100884   36   36   32   32
 -0.5067350115764996   36   36   33   33
 -0.5089897170730928   36   36   34   34
 -0.5123201732112239   36   36   35   35
 -0.5137355830300946   36   36   36   36
 -0.4860693066470501   37   37    1    1
 -0.4860873440553332   37   37    2    2
 -0.4862408614602065   37   37    3    3
 -0.4862590298967148   37   37    4    4
 -0.488691978929081   37   37    5    5
 -0.4887417474949906   37   37    6    6
 -0.494780878515815   37   37    7    7
 -0.494785063646918   37   37    8    8
 -0.4950790071245786   37   37    9    9
 -0.495083710515907   37   37   10   10
 -0.5003114995120147   37   37   11   11
 -0.5047300147671784   37   37   12   12
 -0.5047341110283309   37   37   13   13
 -0.5059311504657691   37   37   14   14
 -0.505937650802652   37   37   15   15
 -0.5062000174247508   37   37   16   16
 -0.5062019605574112   37   37   17   17
 -0.5140148401668169   37   37   18   18
 -0.5151439564229422   37   37   19   19
 -0.5151496025218844   37   37   20   20
 -0.5199175750490079   37   37   21   21
 -0.5199191692970737   37   37   22   22
 -0.5217416871331026   37   37   23   23
 -0.5217436276361425   37   37   24   24
 -0.523867016042684   37   37   25   25
 -0.5238685687455469   37   37   26   26
 -0.5239419779799526   37   37   27   27
 -0.5239434211364921   37   37   28   28
 -0.524183494679428   37   37   29   29
 -0.5267902097588061   37   37   30   30
 -0.5267928978837945   37   37   31   31
 -0.5269272439179075   37   37   32   32
 -0.5269296701708254   37   37   33   33
 -0.5292742313250981   37   37   34   34
 -0.5327374144766315   37   37   35   35
 -0.5342092319196257   37   37   36   36
 -0.5554988069639686   37   37   37   37
 -0.4860725280423885   38   38    1    1
 -0.4860905655702136   38   38    2    2
 -0.4862440839925142   38   38    3    3
 -0.4862622525494328   38   38    4    4
 -0.4886952177060235   38   38    5    5
 -0.4887449866017714   38   38    6    6
 -0.4947841576465764   38   38    7    7
 -0.4947883428054161   38   38    8    8
 -0.4950822882311697   38   38    9    9
 -0.4950869916536695   38   38   10   10
 -0.5003148152966369   38   38   11   11
 -0.5047333598352469   38   38   12   12
 -0.5047374561235471   38   38   13   13
 -0.5059345034942927   38   38   14   14
 -0.5059410038742562   38   38   15   15
 -0.5062033722351743   38   38   16   16
 -0.5062053153807127   38   38   17   17
 -0.5140182467695119   38   38   18   18
 -0.5151473705087879   38   38   19   19
 -0.5151530166451492   38   38   20   20
 -0.5199210207717264   38   38   21   21
 -0.5199226150303579   38   38   22   22
 -0.5217451449450151   38   38   23   23
 -0.5217470854609154   38   38   24   24
 -0.5238704879400871   38   38   25   25
 -0.5238720406532404   38   38   26   26