 &FCI NORB=  20,NELEC=32,MS2=0,
  ORBSYM=1,1,1,1,1,1,1,1,1,1,1,1,1,1,1,1,1,1,1,1,
  ISYM=1,
 &END
 -1.720621395547872    1    1    1    1
 -1.638427816860623    2    2    1    1
 -1.560160601285501    2    2    2    2
 -1.60373440858756    3    3    1    1
 -1.527124486935552    3    3    2    2
 -1.494787906242871    3    3    3    3
 -1.575898098418889    4    4    1    1
 -1.500617909127604    4    4    2    2
 -1.468842600354473    4    4    3    3
 -1.443347631864999    4    4    4    4
 -1.552128983086101    5    5    1    1
 -1.477984237452837    5    5    2    2
 -1.446688192522794    5    5    3    3
 -1.421577762124356    5    5    4    4
 -1.400136245178329    5    5    5    5
 -1.549075151899688    6    6    1    1
 -1.475076286885233    6    6    2    2
 -1.443841817274677    6    6    3    3
 -1.418780791929743    6    6    4    4
 -1.397381461408844    6    6    5    5
 -1.394632097707329    6    6    6    6
 -1.548679867014185    7    7    1    1
 -1.474699884642608    7    7    2    2
 -1.443473385280448    7    7    3    3
 -1.418418754876729    7    7    4    4
 -1.397024884924934    7    7    5    5
 -1.394276222791651    7    7    6    6
 -1.393920438686271    7    7    7    7
 -1.543024691120626    8    8    1    1
 -1.469314854840455    8    8    2    2
 -1.438202382495882    8    8    3    3
 -1.413239241847341    8    8    4    4
 -1.391923493978875    8    8    5    5
 -1.389184868889508    8    8    6    6
 -1.388830383969155    8    8    7    7
 -1.383758916150046    8    8    8    8
 -1.540163426025862    9    9    1    1
 -1.466590271538862    9    9    2    2
 -1.435535491745577    9    9    3    3
 -1.410618640805428    9    9    4    4
 -1.389342419203583    9    9    5    5
 -1.386608872407792    9    9    6    6
 -1.386255044816732    9    9    7    7
 -1.381192981133495    9    9    8    8
 -1.378631804187467    9    9    9    9
 -1.539357644352306   10   10    1    1
 -1.465822981819179   10   10    2    2
 -1.434784449244865   10   10    3    3
 -1.409880634286165   10   10    4    4
 -1.388615543963742   10   10    5    5
 -1.385883427303139   10   10    6    6
 -1.385529784827362   10   10    7    7
 -1.380470369511225   10   10    8    8
 -1.377910532520043   10   10    9    9
 -1.377189638207049   10   10   10   10
 -1.320328732320983   11   11    1    1
 -1.257257016582782   11   11    2    2
 -1.230634830038088   11   11    3    3
 -1.20927447719545   11   11    4    4
 -1.191035109722202   11   11    5    5
 -1.188691734782478   11   11    6    6
 -1.188388410650201   11   11    7    7
 -1.184048878875277   11   11    8    8
 -1.181853270634452   11   11    9    9
 -1.181234949428912   11   11   10   10
 -1.013161852981173   11   11   11   11
 -1.250323598699837   12   12    1    1
 -1.190596007632927   12   12    2    2
 -1.165385355716486   12   12    3    3
 -1.145157549881528   12   12    4    4
 -1.127885251688734   12   12    5    5
 -1.125666124803123   12   12    6    6
 -1.125378883215966   12   12    7    7
 -1.121269437702379   12   12    8    8
 -1.119190242779326   12   12    9    9
 -1.118604705574888   12   12   10   10
 -0.959443010725037   12   12   11   11
 -0.9085723945493136   12   12   12   12
 -1.242478783065836   13   13    1    1
 -1.183125936537595   13   13    2    2
 -1.158073462005395   13   13    3    3
 -1.137972570041071   13   13    4    4
 -1.120808642189395   13   13    5    5
 -1.118603438612361   13   13    6    6
 -1.118317999244482   13   13    7    7
 -1.114234337329994   13   13    8    8
 -1.112168187750446   13   13    9    9
 -1.111586324340072   13   13   10   10
 -0.9534232462910168   13   13   11   11
 -0.9028718039719666   13   13   12   12
 -0.8972069802010133   13   13   13   13
 -1.204363479131225   14   14    1    1
 -1.146831389476777   14   14    2    2
 -1.122547445316381   14   14    3    3
 -1.103063184892989   14   14    4    4
 -1.086425791848743   14   14    5    5
 -1.08428823691547   14   14    6    6
 -1.084011553921068   14   14    7    7
 -1.080053165787636   14   14    8    8
 -1.078050399116733   14   14    9    9
 -1.077486385428251   14   14   10   10
 -0.9241752484129074   14   14   11   11
 -0.8751745638328097   14   14   12   12
 -0.8696835188681498   14   14   13   13
 -0.8430043899362355   14   14   14   14
 -1.167287643765876   15   15    1    1
 -1.111526655876977   15   15    2    2
 -1.087990282970039   15   15    3    3
 -1.069105837506325   15   15    4    4
 -1.052980619778008   15   15    5    5
 -1.050908868595981   15   15    6    6
 -1.050640703173995   15   15    7    7
 -1.046804172394502   15   15    8    8
 -1.044863060073512   15   15    9    9
 -1.044316409314927   15   15   10   10
 -0.8957248927249348   15   15   11   11
 -0.8482326741069497   15   15   12   12
 -0.8429106687076876   15   15   13   13
 -0.8170528458093008   15   15   14   14
 -0.7919002093163147   15   15   15   15
 -1.165285330024626   16   16    1    1
 -1.10961999207503   16   16    2    2
 -1.086123992424113   16   16    3    3
 -1.067271940505254   16   16    4    4
 -1.05117438326423   16   16    5    5
 -1.049106185872807   16   16    6    6
 -1.048838480449959   16   16    7    7
 -1.045008530686156   16   16    8    8
 -1.043070748063629   16   16    9    9
 -1.042525035005646   16   16   10   10
 -0.8941884057496282   16   16   11   11
 -0.8467776531888306   16   16   12   12
 -0.8414647769229051   16   16   13   13
 -0.8156513093934666   16   16   14   14
 -0.7905418186237714   16   16   15   15
 -0.7891857580547105   16   16   16   16
 -1.138228212318974   17   17    1    1
 -1.083855384935006   17   17    2    2
 -1.06090494611094   17   17    3    3
 -1.042490625771309   17   17    4    4
 -1.026766842652229   17   17    5    5
 -1.02474666737077   17   17    6    6
 -1.024485177882294   17   17    7    7
 -1.020744156897474   17   17    8    8
 -1.018851368244368   17   17    9    9
 -1.018318326265358   17   17   10   10
 -0.8734259707287692   17   17   11   11
 -0.8271160629821116   17   17   12   12
 -0.8219265480207342   17   17   13   13
 -0.7967124513160536   17   17   14   14
 -0.7721859855186801   17   17   15   15
 -0.7708614117361492   17   17   16   16
 -0.7529625440385281   17   17   17   17
 -1.114803514108894   18   18    1    1
 -1.061549677678157   18   18    2    2
 -1.039071558110831   18   18    3    3
 -1.021036203862561   18   18    4    4
 -1.005636015669612   18   18    5    5
 -1.003657415527292   18   18    6    6
 -1.003401307483667   18   18    7    7
 -0.9997372765845073   18   18    8    8
 -0.9978834414580271   18   18    9    9
 -0.9973613694649619   18   18   10   10
 -0.8554508937172053   18   18   11   11
 -0.8100940423096558   18   18   12   12
 -0.8050113273911091   18   18   13   13
 -0.7803161359459844   18   18   14   14
 -0.756294423987292   18   18   15   15
 -0.7549971098885196   18   18   16   16
 -0.7374666002842765   18   18   17   17
 -0.7222895625297139   18   18   18   18
 -1.100348094497328   19   19    1    1
 -1.047784789215614   19   19    2    2
 -1.025598138634807   19   19    3    3
 -1.007796644981881   19   19    4    4
 -0.9925961477475708   19   19    5    5
 -0.9906432036916728   19   19    6    6
 -0.990390416546475   19   19    7    7
 -0.986773896355208   19   19    8    8
 -0.9849440995137752   19   19    9    9
 -0.9844287971169945   19   19   10   10
 -0.8443584442682498   19   19   11   11
 -0.7995897254877127   19   19   12   12
 -0.7945729170504283   19   19   13   13
 -0.7701979428904207   19   19   14   14
 -0.7464877153518583   19   19   15   15
 -0.7452072232485574   19   19   16   16
 -0.7279040280267383   19   19   17   17
 -0.7129237876866313   19   19   18   18
 -0.703679456850166   19   19   19   19
 -1.088364104535449   20   20    1    1
 -1.036373270934297   20   20    2    2
 -1.014428257158404   20   20    3    3
 -0.9968206411722909   20   20    4    4
 -0.9817856939191022   20   20    5    5
 -0.9798540195523862   20   20    6    6
 -0.9796039855346993   20   20    7    7
 -0.9760268531897746   20   20    8    8
 -0.9742169848301463   20   20    9    9
 -0.9737072946380683   20   20   10   10
 -0.835162460587321   20   20   11   11
 -0.7908813219454282   20   20   12   12
 -0.7859191520195875   20   20   13   13
 -0.7618096478932131   20   20   14   14
 -0.7383576505731035   20   20   15   15
 -0.7370911044243499   20   20   16   16
 -0.7199763598563591   20   20   17   17
 -0.7051592706597496   20   20   18   18
 -0.6960156206610142   20   20   19   19
 -0.688435252000383   20   20   20   20
 -0.8603106977739362    1    1  0  0
 -0.7800803006427505    2    2  0  0
 -0.7473939531214355    3    3  0  0
 -0.7216738159324997    4    4  0  0
 -0.7000681225891644    5    5  0  0
 -0.6973160488536646    6    6  0  0
 -0.6969602193431355    7    7  0  0
 -0.6918794580750229    8    8  0  0
 -0.6893159020937336    9    9  0  0
 -0.6885948191035244   10   10  0  0
 -0.5065809264905863   11   11  0  0
 -0.4542861972746568   12   12  0  0
 -0.4486034901005067   13   13  0  0
 -0.4215021949681177   14   14  0  0
 -0.3959501046581573   15   15  0  0
 -0.3945928790273552   16   16  0  0
 -0.3764812720192641   17   17  0  0
 -0.3611447812648569   18   18  0  0
 -0.351839728425083   19   19  0  0
 -0.3442176260001915   20   20  0  0
 -4666.540648312372  0  0  0  0
