 &FCI NORB=  33,NELEC=46,MS2=0,
  ORBSYM=1,1,1,1,1,1,1,1,1,1,1,1,1,1,1,1,1,1,1,1,1,1,1,1,1,1,1,1,1,1,1,1,1,
  ISYM=1,
 &END
 -0.3594047785107305    1    1    1    1
 -0.379468100070767    2    2    1    1
 -0.4006514314250233    2    2    2    2
 -0.3811055251835243    3    3    1    1
 -0.4023802637436164    3    3    2    2
 -0.4041165560659718    3    3    3    3
 -0.3812194167443754    4    4    1    1
 -0.4025005131581884    4    4    2    2
 -0.4042373243631881    4    4    3    3
 -0.4043581287514316    4    4    4    4
 -0.3833910587872015    5    5    1    1
 -0.4047933843977967    5    5    2    2
 -0.4065400894646187    5    5    3    3
 -0.4066615820231834    5    5    4    4
 -0.4089781570713948    5    5    5    5
 -0.3834374937635581    6    6    1    1
 -0.4048424115485426    6    6    2    2
 -0.4065893281701378    6    6    3    3
 -0.4067108354434538    6    6    4    4
 -0.409027691067086    6    6    5    5
 -0.4090772310621604    6    6    6    6
 -0.3844364894476442    7    7    1    1
 -0.4058971749153232    7    7    2    2
 -0.4076486428971631    7    7    3    3
 -0.4077704667416115    7    7    4    4
 -0.4100933586261892    7    7    5    5
 -0.4101430276911696    7    7    6    6
 -0.4112116011123544    7    7    7    7
 -0.393723155942624    8    8    1    1
 -0.4157022579346511    8    8    2    2
 -0.4174960353732425    8    8    3    3
 -0.4176208020637672    8    8    4    4
 -0.4199998070458996    8    8    5    5
 -0.4200506759450639    8    8    6    6
 -0.4211450624335831    8    8    7    7
 -0.4313184820963408    8    8    8    8
 -0.3940081620783531    9    9    1    1
 -0.4160031741809007    9    9    2    2
 -0.4177982500891615    9    9    3    3
 -0.4179231070951065    9    9    4    4
 -0.4203038341781786    9    9    5    5
 -0.4203547399000397    9    9    6    6
 -0.4214499185869842    9    9    7    7
 -0.4316307025283763    9    9    8    8
 -0.4319431489688075    9    9    9    9
 -0.3946947754370778   10   10    1    1
 -0.4167281168703054   10   10    2    2
 -0.4185263209449779   10   10    3    3
 -0.418651395531411   10   10    4    4
 -0.4210362713585347   10   10    5    5
 -0.4210872657906106   10   10    6    6
 -0.4221843529768934   10   10    7    7
 -0.4323828783331323   10   10    8    8
 -0.4326958692544158   10   10    9    9
 -0.4334499012585448   10   10   10   10
 -0.4039667198782625   11   11    1    1
 -0.4265176559956263   11   11    2    2
 -0.4283581024543178   11   11    3    3
 -0.4284861152215644   11   11    4    4
 -0.4309270151907451   11   11    5    5
 -0.4309792075549204   11   11    6    6
 -0.4321020668873561   11   11    7    7
 -0.4425401701817128   11   11    8    8
 -0.4428605137071182   11   11    9    9
 -0.4436322590008173   11   11   10   10
 -0.4540538148808459   11   11   11   11
 -0.4041047588454602   12   12    1    1
 -0.4266634008152563   12   12    2    2
 -0.4285044761706261   12   12    3    3
 -0.4286325326809569   12   12    4    4
 -0.4310742667270409   12   12    5    5
 -0.4311264769258043   12   12    6    6
 -0.4322497199491109   12   12    7    7
 -0.442691390034808   12   12    8    8
 -0.4430118430244023   12   12    9    9
 -0.4437838520302293   12   12   10   10
 -0.4542089690472019   12   12   11   11
 -0.4543641762310958   12   12   12   12
 -0.404479300433926   13   13    1    1
 -0.4270588507187372   13   13    2    2
 -0.4289016324615548   13   13    3    3
 -0.4290298076601409   13   13    4    4
 -0.4314738048098588   13   13    5    5
 -0.4315260633992694   13   13    6    6
 -0.4326503474922911   13   13    7    7
 -0.4431016953647861   13   13    8    8
 -0.4434224453639284   13   13    9    9
 -0.4441951699007483   13   13   10   10
 -0.4546299493624261   13   13   11   11
 -0.4547853003989818   13   13   12   12
 -0.4552068148827731   13   13   13   13
 -0.4045937733250205   14   14    1    1
 -0.4271797139155851   14   14    2    2
 -0.4290230171895504   14   14    3    3
 -0.429151228663381   14   14    4    4
 -0.431595917496009   14   14    5    5
 -0.4316481908752785   14   14    6    6
 -0.4327727931552888   14   14    7    7
 -0.4432270988948625   14   14    8    8
 -0.4435479396704171   14   14    9    9
 -0.4443208828983088   14   14   10   10
 -0.4547586155379902   14   14   11   11
 -0.4549140105409052   14   14   12   12
 -0.4553356443187656   14   14   13   13
 -0.4554645102151603   14   14   14   14
 -0.4050007532950606   15   15    1    1
 -0.4276094130326584   15   15    2    2
 -0.4294545704812568   15   15    3    3
 -0.4295829109227217   15   15    4    4
 -0.4320300588623687   15   15    5    5
 -0.4320823848233133   15   15    6    6
 -0.4332081183382373   15   15    7    7
 -0.4436729400405302   15   15    8    8
 -0.443994103549102   15   15    9    9
 -0.4447678242788548   15   15   10   10
 -0.4552160562104112   15   15   11   11
 -0.4553716075248115   15   15   12   12
 -0.4557936654231443   15   15   13   13
 -0.4559226609454555   15   15   14   14
 -0.4563812725285437   15   15   15   15
 -0.4170219614467482   16   16    1    1
 -0.4403016900713175   16   16    2    2
 -0.4422016153730169   16   16    3    3
 -0.4423337652077942   16   16    4    4
 -0.4448535492463154   16   16    5    5
 -0.4449074283433052   16   16    6    6
 -0.446066575813132   16   16    7    7
 -0.4568420137276913   16   16    8    8
 -0.457172709992328   16   16    9    9
 -0.4579693962545346   16   16   10   10
 -0.4687277519817741   16   16   11   11
 -0.4688879203609909   16   16   12   12
 -0.4693225057566348   16   16   13   13
 -0.469455330116329   16   16   14   14
 -0.4699275541810143   16   16   15   15
 -0.4838759157558082   16   16   16   16
 -0.4178025531563672   17   17    1    1
 -0.4411258573353353   17   17    2    2
 -0.4430293389627836   17   17    3    3
 -0.4431617361587913   17   17    4    4
 -0.4456862367895123   17   17    5    5
 -0.4457402167386881   17   17    6    6
 -0.4469015339285508   17   17    7    7
 -0.4576971415662452   17   17    8    8
 -0.4580284568360818   17   17    9    9
 -0.4588266343547424   17   17   10   10
 -0.4696051278302689   17   17   11   11
 -0.4697655960164995   17   17   12   12
 -0.4702009948795104   17   17   13   13
 -0.4703340678630268   17   17   14   14
 -0.4708071758480427   17   17   15   15
 -0.4847816463005808   17   17   16   16
 -0.4856890722135108   17   17   17   17
 -0.4180856767986118   18   18    1    1
 -0.4414247860002598   18   18    2    2
 -0.443329557520858   18   18    3    3
 -0.4434620444357438   18   18    4    4
 -0.4459882557927589   18   18    5    5
 -0.4460422723214139   18   18    6    6
 -0.4472043764771534   18   18    7    7
 -0.4580072997516996   18   18    8    8
 -0.4583388395371242   18   18    9    9
 -0.4591375579402876   18   18   10   10
 -0.4699233554552645   18   18   11   11
 -0.4700839323826624   18   18   12   12
 -0.4705196262934442   18   18   13   13
 -0.4706527894537856   18   18   14   14
 -0.4711262180401355   18   18   15   15
 -0.4851101582839496   18   18   16   16
 -0.4860181991134893   18   18   17   17
 -0.4863475490461086   18   18   18   18
 -0.4206170369755472   19   19    1    1
 -0.4440974561882211   19   19    2    2
 -0.4460137604233823   19   19    3    3
 -0.4461470494994492   19   19    4    4
 -0.4486885561683646   19   19    5    5
 -0.448742899747902   19   19    6    6
 -0.4499120400312694   19   19    7    7
 -0.4607803711666661   19   19    8    8
 -0.4611139183076556   19   19    9    9
 -0.4619174726668695   19   19   10   10
 -0.4727685743523096   19   19   11   11
 -0.4729301235159307   19   19   12   12
 -0.4733684553984878   19   19   13   13
 -0.4735024248144363   19   19   14   14
 -0.4739787198426104   19   19   15   15
 -0.4880473278744265   19   19   16   16
 -0.488960866568453   19   19   17   17
 -0.4892922105978567   19   19   18   18
 -0.4922547010287085   19   19   19   19
 -0.4206572940204423   20   20    1    1
 -0.4441399605322203   20   20    2    2
 -0.4460564481758953   20   20    3    3
 -0.4461897500089926   20   20    4    4
 -0.448731499924232   20   20    5    5
 -0.4487858487049661   20   20    6    6
 -0.4499551008861615   20   20    7    7
 -0.4608244722240607   20   20    8    8
 -0.4611580512886791   20   20    9    9
 -0.4619616825556763   20   20   10   10
 -0.472813822794597   20   20   11   11
 -0.4729753874200072   20   20   12   12
 -0.4734137612550881   20   20   13   13
 -0.473547743493182   20   20   14   14
 -0.4740240841073136   20   20   15   15
 -0.488094038638523   20   20   16   16
 -0.4890076647668781   20   20   17   17
 -0.489339040509052   20   20   18   18
 -0.4923018144783718   20   20   19   19
 -0.4923489324372398   20   20   20   20
 -0.4224687128244273   21   21    1    1
 -0.4460524995219047   21   21    2    2
 -0.4479772398734365   21   21    3    3
 -0.4481111157259327   21   21    4    4
 -0.4506638108301821   21   21    5    5
 -0.4507183936456157   21   21    6    6
 -0.4518926808170935   21   21    7    7
 -0.4628088574378413   21   21    8    8
 -0.463143872948229   21   21    9    9
 -0.4639509647823177   21   21   10   10
 -0.474849836104169   21   21   11   11
 -0.4750120964531639   21   21   12   12
 -0.4754523579973595   21   21   13   13
 -0.475586917184787   21   21   14   14
 -0.4760653089991659   21   21   15   15
 -0.4901958510456076   21   21   16   16
 -0.491113411396838   21   21   17   17
 -0.4914462140969157   21   21   18   18
 -0.4944217462533781   21   21   19   19
 -0.4944690671098492   21   21   20   20
 -0.4965983314275819   21   21   21   21
 -0.4305407041291299   22   22    1    1
 -0.4545750996299937   22   22    2    2
 -0.4565366154560394   22   22    3    3
 -0.4566730492369323   22   22    4    4
 -0.4592745179711798   22   22    5    5
 -0.4593301436851717   22   22    6    6
 -0.4605268676325566   22   22    7    7
 -0.4716516165808839   22   22    8    8
 -0.4719930331387449   22   22    9    9
 -0.4728155458503308   22   22   10   10
 -0.4839226588522651   22   22   11   11
 -0.4840880194642769   22   22   12   12
 -0.4845366929624199   22   22   13   13
 -0.4846738231345332   22   22   14   14
 -0.4851613554472465   22   22   15   15
 -0.4995618858006733   22   22   16   16
 -0.5004969777204005   22   22   17   17
 -0.5008361391884051   22   22   18   18
 -0.5038685240039277   22   22   19   19
 -0.5039167490067424   22   22   20   20
 -0.5060866965810961   22   22   21   21
 -0.5157563532686104   22   22   22   22
 -0.4309736618346859   23   23    1    1
 -0.4550322266571277   23   23    2    2
 -0.4569957150107027   23   23    3    3
 -0.4571322859912987   23   23    4    4
 -0.4597363707985991   23   23    5    5
 -0.4597920524505808   23   23    6    6
 -0.460989979840171   23   23    7    7
 -0.4721259159903896   23   23    8    8
 -0.4724676758814781   23   23    9    9
 -0.4732910157232587   23   23   10   10
 -0.484409298192132   23   23   11   11
 -0.4845748250930695   23   23   12   12
 -0.4850239497835074   23   23   13   13
 -0.4851612178556243   23   23   14   14
 -0.4856492404375955   23   23   15   15
 -0.5000642521641441   23   23   16   16
 -0.5010002844252796   23   23   17   17
 -0.5013397869587621   23   23   18   18
 -0.5043752211825276   23   23   19   19
 -0.5044234946810742   23   23   20   20
 -0.5065956243848153   23   23   21   21
 -0.516275005013255   23   23   22   22
 -0.51679417832129   23   23   23   23
 -0.4310376275949498   24   24    1    1
 -0.4550997632258329   24   24    2    2
 -0.457063543003308   24   24    3    3
 -0.4572001342539747   24   24    4    4
 -0.4598046055634659   24   24    5    5
 -0.4598602954798023   24   24    6    6
 -0.4610584006675807   24   24    7    7
 -0.4721959896302219   24   24    8    8
 -0.4725378002458284   24   24    9    9
 -0.4733612622889489   24   24   10   10
 -0.4844811949500588   24   24   11   11
 -0.4846467464187483   24   24   12   12
 -0.4850959377689495   24   24   13   13
 -0.4852332262146005   24   24   14   14
 -0.4857213212296186   24   24   15   15
 -0.5001384724539277   24   24   16   16
 -0.5010746436423816   24   24   17   17
 -0.5014141965653418   24   24   18   18
 -0.5044500813128285   24   24   19   19
 -0.5044983619762005   24   24   20   20
 -0.506670814070705   24   24   21   21
 -0.5163516313274021   24   24   22   22
 -0.5168708816919219   24   24   23   23
 -0.5169475964469835   24   24   24   24
 -0.435967257858533   25   25    1    1
 -0.4603045839238901   25   25    2    2
 -0.4622908227805784   25   25    3    3
 -0.4624289761787698   25   25    4    4
 -0.4650632339379024   25   25    5    5
 -0.4651195607608088   25   25    6    6
 -0.4663313682687897   25   25    7    7
 -0.4775963340359107   25   25    8    8
 -0.4779420538228917   25   25    9    9
 -0.4787749335204088   25   25   10   10
 -0.4900220410569028   25   25   11   11
 -0.4901894858812486   25   25   12   12
 -0.4906438144796441   25   25   13   13
 -0.4907826730464011   25   25   14   14
 -0.491276350237553   25   25   15   15
 -0.5058583855008415   25   25   16   16
 -0.5068052633597276   25   25   17   17
 -0.5071486996336019   25   25   18   18
 -0.5102193047590089   25   25   19   19
 -0.510268137591853   25   25   20   20
 -0.5124654352796553   25   25   21   21
 -0.5222569687399263   25   25   22   22
 -0.522782157593681   25   25   23   23
 -0.5228597497092189   25   25   24   24
 -0.5288395182509068   25   25   25   25
 -0.4392670876420102   26   26    1    1
 -0.4637886225715722   26   26    2    2
 -0.4657898952410486   26   26    3    3
 -0.4659290943202856   26   26    4    4
 -0.468583290737779   26   26    5    5
 -0.4686400438975823   26   26    6    6
 -0.469861023558826   26   26    7    7
 -0.4812112536866947   26   26    8    8
 -0.481559590221675   26   26    9    9
 -0.4823987739734127   26   26   10   10
 -0.4937310107019685   26   26   11   11
 -0.493899722913735   26   26   12   12
 -0.4943574903186314   26   26   13   13
 -0.4944973999038444   26   26   14   14
 -0.4949948137304189   26   26   15   15
 -0.5096872202048436   26   26   16   16
 -0.5106412649683624   26   26   17   17
 -0.5109873007063589   26   26   18   18
 -0.5140811471969451   26   26   19   19
 -0.5141303496447851   26   26   20   20
 -0.5163442786465742   26   26   21   21
 -0.5262099240800627   26   26   22   22
 -0.526739088080552   26   26   23   23
 -0.5268172674896751   26   26   24   24
 -0.532842296811792   26   26   25   25
 -0.5368753723449241   26   26   26   26
 -0.4456428753955932   27   27    1    1
 -0.4705203306900116   27   27    2    2
 -0.4725506510394454   27   27    3    3
 -0.4726918705381714   27   27    4    4
 -0.4753845915651571   27   27    5    5
 -0.4754421684745912   27   27    6    6
 -0.4766808701719048   27   27    7    7
 -0.4881958443934821   27   27    8    8
 -0.488549236895268   27   27    9    9
 -0.4894006010667044   27   27   10   10
 -0.5008973207219062   27   27   11   11
 -0.5010684817245881   27   27   12   12
 -0.5015328934420138   27   27   13   13
 -0.5016748337594286   27   27   14   14
 -0.5021794673506363   27   27   15   15
 -0.5170851282843767   27   27   16   16
 -0.518053020629676   27   27   17   17
 -0.5184040789393213   27   27   18   18
 -0.5215428313860355   27   27   19   19
 -0.5215927479879134   27   27   20   20
 -0.5238388112920758   27   27   21   21
 -0.533847652660579   27   27   22   22
 -0.5343844972668976   27   27   23   23
 -0.5344638114191718   27   27   24   24
 -0.5405762916549758   27   27   25   25
 -0.5446679056816961   27   27   26   26
 -0.5525735445526992   27   27   27   27
 -0.4457119800283425   28   28    1    1
 -0.4705932930023218   28   28    2    2
 -0.4726239281880289   28   28    3    3
 -0.4727651695852796   28   28    4    4
 -0.4754583081652163   28   28    5    5
 -0.4755158940029457   28   28    6    6
 -0.476754787782374   28   28    7    7
 -0.4882715475997919   28   28    8    8
 -0.4886249949011951   28   28    9    9
 -0.489476491091366   28   28   10   10
 -0.5009749935117223   28   28   11   11
 -0.5011461810558769   28   28   12   12
 -0.5016106647883688   28   28   13   13
 -0.5017526271160838   28   28   14   14
 -0.5022573389594548   28   28   15   15
 -0.5171653112736335   28   28   16   16
 -0.5181333537073753   28   28   17   17
 -0.518484466454681   28   28   18   18
 -0.5216237056192295   28   28   19   19
 -0.5216736299615397   28   28   20   20
 -0.5239200415566505   28   28   21   21
 -0.5339304349690551   28   28   22   22
 -0.5344673628224118   28   28   23   23
 -0.5345466892737165   28   28   24   24
 -0.5406601173552625   28   28   25   25
 -0.5447523658574793   28   28   26   26
 -0.5526592306344736   28   28   27   27
 -0.5527449300033564   28   28   28   28
 -0.4583434632815627   29   29    1    1
 -0.4839299129856092   29   29    2    2
 -0.4860180963986267   29   29    3    3
 -0.4861633405788943   29   29    4    4
 -0.4889328027408646   29   29    5    5
 -0.4889920205619767   29   29    6    6
 -0.4902660246070667   29   29    7    7
 -0.5021091695460059   29   29    8    8
 -0.502472633548482   29   29    9    9
 -0.5033482611516467   29   29   10   10
 -0.5151726312786564   29   29   11   11
 -0.5153486702800167   29   29   12   12
 -0.5158263174874684   29   29   13   13
 -0.5159723030293788   29   29   14   14
 -0.5164913184128899   29   29   15   15
 -0.5318217828544152   29   29   16   16
 -0.5328172596231943   29   29   17   17
 -0.5331783229102797   29   29   18   18
 -0.5364065281531739   29   29   19   19
 -0.536457867351988   29   29   20   20
 -0.5387679422806302   29   29   21   21
 -0.5490620303712413   29   29   22   22
 -0.549614174766876   29   29   23   23
 -0.5496957493308321   29   29   24   24
 -0.5559824320429287   29   29   25   25
 -0.5601906549203923   29   29   26   26
 -0.5683216003469795   29   29   27   27
 -0.56840972843708   29   29   28   28
 -0.5845184674601233   29   29   29   29
 -0.4756166187004359   30   30    1    1
 -0.5021673206689107   30   30    2    2
 -0.5043341994698322   30   30    3    3
 -0.5044849173297754   30   30    4    4
 -0.5073587495857532   30   30    5    5
 -0.5074201990927288   30   30    6    6
 -0.5087422153200315   30   30    7    7
 -0.5210316816305333   30   30    8    8
 -0.5214088431561703   30   30    9    9
 -0.5223174697063914   30   30   10   10
 -0.534587453656432   30   30   11   11
 -0.5347701268726855   30   30   12   12
 -0.5352657747174553   30   30   13   13
 -0.5354172618780346   30   30   14   14
 -0.5359558369020824   30   30   15   15
 -0.551864046017975   30   30   16   16
 -0.5528970383756531   30   30   17   17
 -0.5532717087124153   30   30   18   18
 -0.556621572264747   30   30   19   19
 -0.5566748462352578   30   30   20   20
 -0.5590719787669167   30   30   21   21
 -0.5697540103927354   30   30   22   22
 -0.5703269629305679   30   30   23   23
 -0.5704116117177526   30   30   24   24
 -0.5769352146790827   30   30   25   25
 -0.5813020288611527   30   30   26   26
 -0.5897393975168403   30   30   27   27
 -0.5898308468066938   30   30   28   28
 -0.6065466606001614   30   30   29   29
 -0.6294050093640643   30   30   30   30
 -0.4760171047811981   31   31    1    1
 -0.5025901633834716   31   31    2    2
 -0.5047588667732832   31   31    3    3
 -0.5049097115430161   31   31    4    4
 -0.5077859636677953   31   31    5    5
 -0.5078474649174376   31   31    6    6
 -0.5091705943293448   31   31    7    7
 -0.5214704088068446   31   31    8    8
 -0.5218478879158781   31   31    9    9
 -0.5227572795619173   31   31   10   10
 -0.5350375952741169   31   31   11   11
 -0.5352204223077045   31   31   12   12
 -0.5357164875055588   31   31   13   13
 -0.5358681022237061   31   31   14   14
 -0.5364071307470474   31   31   15   15
 -0.5523287351398717   31   31   16   16
 -0.5533625973137936   31   31   17   17
 -0.5537375831362827   31   31   18   18
 -0.5570902673926699   31   31   19   19
 -0.5571435862217555   31   31   20   20
 -0.5595427372241216   31   31   21   21
 -0.5702337634998582   31   31   22   22
 -0.5708071984840715   31   31   23   23
 -0.5708919185485407   31   31   24   24
 -0.5774210146151991   31   31   25   25
 -0.5817915058098638   31   31   26   26
 -0.5902359790295469   31   31   27   27
 -0.5903275053229495   31   31   28   28
 -0.607057394425163   31   31   29   29
 -0.6299349907303611   31   31   30   30
 -0.6304654183597866   31   31   31   31
 -0.4761954353854693   32   32    1    1
 -0.5027784490703443   32   32    2    2
 -0.504947964922948   32   32    3    3
 -0.5050988662037573   32   32    4    4
 -0.5079761958607811   32   32    5    5
 -0.5080377201506775   32   32    6    6
 -0.5093613452474354   32   32    7    7
 -0.5216657676126061   32   32    8    8
 -0.522043388136889   32   32    9    9
 -0.5229531204689248   32   32   10   10
 -0.5352380367639596   32   32   11   11
 -0.5354209322901605   32   32   12   12
 -0.5359171833292494   32   32   13   13
 -0.5360688548469194   32   32   14   14
 -0.5366080853068746   32   32   15   15
 -0.5525356544209321   32   32   16   16
 -0.5535699039113273   32   32   17   17
 -0.5539450302150043   32   32   18   18
 -0.5572989704897222   32   32   19   19
 -0.5573523092936762   32   32   20   20
 -0.5597523590915765   32   32   21   21
 -0.5704473905535909   32   32   22   22
 -0.5710210403641334   32   32   23   23
 -0.5711057921673365   32   32   24   24
 -0.577637334233593   32   32   25   25
 -0.582009462748278   32   32   26   26
 -0.5904570995265747   32   32   27   27
 -0.5905486601085335   32   32   28   28
 -0.6072848167402179   32   32   29   29
 -0.6301709836945218   32   32   30   30
 -0.6307016100384025   32   32   31   31
 -0.630937890201664   32   32   32   32
 -0.4958985756677128   33   33    1    1
 -0.5235814924781479   33   33    2    2
 -0.5258407745737937   33   33    3    3
 -0.5259979195706985   33   33    4    4
 -0.5289943020905973   33   33    5    5
 -0.5290583720195833   33   33    6    6
 -0.530436763645007   33   33    7    7
 -0.5432502958040517   33   33    8    8
 -0.5436435408169595   33   33    9    9
 -0.5445909143828784   33   33   10   10
 -0.5573841333854366   33   33   11   11
 -0.5575745964268674   33   33   12   12
 -0.5580913804301804   33   33   13   13
 -0.5582493275333923   33   33   14   14
 -0.5588108692811244   33   33   15   15
 -0.5753974601020058   33   33   16   16
 -0.5764745028686102   33   33   17   17
 -0.5768651504596322   33   33   18   18
 -0.5803578639161583   33   33   19   19
 -0.5804134096751956   33   33   20   20
 -0.5829127643263946   33   33   21   21
 -0.5940503151608353   33   33   22   22
 -0.5946477003998386   33   33   23   23
 -0.5947359589075241   33   33   24   24
 -0.6015377511274524   33   33   25   25
 -0.6060907815472285   33   33   26   26
 -0.6148879491276452   33   33   27   27
 -0.6149832981352306   33   33   28   28
 -0.6324119327232247   33   33   29   29
 -0.656245041467633   33   33   30   30
 -0.6567976230939756   33   33   31   31
 -0.6570436796239485   33   33   32   32
 -0.6842296264625879   33   33   33   33
 -0.1797023892553653    1    1  0  0
 -0.2003257157125116    2    2  0  0
 -0.2020582780329859    3    3  0  0
 -0.2021790643757158    4    4  0  0
 -0.2044890785356974    5    5  0  0
 -0.2045386155310802    6    6  0  0
 -0.2056058005561772    7    7  0  0
 -0.2156592410481704    8    8  0  0
 -0.2159715744844038    9    9  0  0
 -0.2167249506292724   10   10  0  0
 -0.2270269074404229   11   11  0  0
 -0.2271820881155479   12   12  0  0
 -0.2276034074413865   13   13  0  0
 -0.2277322551075802   14   14  0  0
 -0.2281906362642718   15   15  0  0
 -0.2419379578779041   16   16  0  0
 -0.2428445361067554   17   17  0  0
 -0.2431737745230543   18   18  0  0
 -0.2461273505143542   19   19  0  0
 -0.2461744662186199   20   20  0  0
 -0.2482991657137909   21   21  0  0
 -0.2578781766343052   22   22  0  0
 -0.258397089160645   23   23  0  0
 -0.2584737982234918   24   24  0  0
 -0.2644197591254534   25   25  0  0
 -0.2684376861724621   26   26  0  0
 -0.2762867722763496   27   27  0  0
 -0.2763724650016782   28   28  0  0
 -0.2922592337300616   29   29  0  0
 -0.3147025046820321   30   30  0  0
 -0.3152327091798933   31   31  0  0
 -0.315468945100832   32   32  0  0
 -0.3421148132312939   33   33  0  0
 -8422.221831068473  0  0  0  0
