 &FCI NORB=  14,NELEC=24,MS2=0,
  ORBSYM=1,1,1,1,1,1,1,1,1,1,1,1,1,1,
  ISYM=1,
 &END
 -0.7659276311536879    1    1    1    1
 -0.7722344017374509    2    2    1    1
 -0.7785931032786285    2    2    2    2
 -0.8887817998842074    3    3    1    1
 -0.8961001713372001    3    3    2    2
 -1.031341677301241    3    3    3    3
 -0.8924865530603348    4    4    1    1
 -0.8998354300433554    4    4    2    2
 -1.035640669871918    4    4    3    3
 -1.03995758214615    4    4    4    4
 -1.12036299394447    5    5    1    1
 -1.129588241978286    5    5    2    2
 -1.300068306429619    5    5    3    3
 -1.305487445511963    5    5    4    4
 -1.638814409018691    5    5    5    5
 -1.12068995326869    6    6    1    1
 -1.12991789353786    6    6    2    2
 -1.300447709763366    6    6    3    3
 -1.305868430331409    6    6    4    4
 -1.639292669773991    6    6    5    5
 -1.639771070101745    6    6    6    6
 -1.121395417283207    7    7    1    1
 -1.130629166455875    7    7    2    2
 -1.301266329631712    7    7    3    3
 -1.306690462493477    7    7    4    4
 -1.640324589427072    7    7    5    5
 -1.640803290903431    7    7    6    6
 -1.641836161478614    7    7    7    7
 -1.122636161052295    8    8    1    1
 -1.131880126707547    8    8    2    2
 -1.302706087691652    8    8    3    3
 -1.308136221968214    8    8    4    4
 -1.642139491184512    8    8    5    5
 -1.642618722309793    8    8    6    6
 -1.643652735682344    8    8    7    7
 -1.645471319795414    8    8    8    8
 -1.122852799252353    9    9    1    1
 -1.132098548741184    9    9    2    2
 -1.302957474482701    9    9    3    3
 -1.30838865662727    9    9    4    4
 -1.642456379376748    9    9    5    5
 -1.642935702980583    9    9    6    6
 -1.643969915889549    9    9    7    7
 -1.645788850939818    9    9    8    8
 -1.646106443359084    9    9    9    9
 -1.125429580964839   10   10    1    1
 -1.134696548086308   10   10    2    2
 -1.305947569884903   10   10    3    3
 -1.311391215792163   10   10    4    4
 -1.646225574737664   10   10    5    5
 -1.646705998318538   10   10    6    6
 -1.64774258459373   10   10    7    7
 -1.649565693831904   10   10    8    8
 -1.649884015078972   10   10    9    9
 -1.6536702557693   10   10   10   10
 -1.146396023680287   11   11    1    1
 -1.155835631843528   11   11    2    2
 -1.330277012949565   11   11    3    3
 -1.335822072478795   11   11    4    4
 -1.676894303188762   11   11    5    5
 -1.677383676928453   11   11    6    6
 -1.678439574520076   11   11    7    7
 -1.680296647780569   11   11    8    8
 -1.680620899264681   11   11    9    9
 -1.684477676574877   11   11   10   10
 -1.7158590311338   11   11   11   11
 -1.149370248039199   12   12    1    1
 -1.158834346441377   12   12    2    2
 -1.333728300475243   12   12    3    3
 -1.339287746177124   12   12    4    4
 -1.681244859000926   12   12    5    5
 -1.681735502378043   12   12    6    6
 -1.682794139403747   12   12    7    7
 -1.68465603067862   12   12    8    8
 -1.684981123404888   12   12    9    9
 -1.688847906786971   12   12   10   10
 -1.720310677529497   12   12   11   11
 -1.724773873332966   12   12   12   12
 -1.175053820769242   13   13    1    1
 -1.184729401815983   13   13    2    2
 -1.363531497370074   13   13    3    3
 -1.369215173212998   13   13    4    4
 -1.718813583862933   13   13    5    5
 -1.719315191048173   13   13    6    6
 -1.720397484142138   13   13    7    7
 -1.72230098082663   13   13    8    8
 -1.722633338002881   13   13    9    9
 -1.726586527669095   13   13   10   10
 -1.758752358510865   13   13   11   11
 -1.763315287898201   13   13   12   12
 -1.802717940368101   13   13   13   13
 -1.18306834028301   14   14    1    1
 -1.192809914164918   14   14    2    2
 -1.372831539291691   14   14    3    3
 -1.37855398095976   14   14    4    4
 -1.730536846887074   14   14    5    5
 -1.731041875311837   14   14    6    6
 -1.732131550245653   14   14    7    7
 -1.734048029834462   14   14    8    8
 -1.734382653871198   14   14    9    9
 -1.73836280648597   14   14   10   10
 -1.770748026154364   14   14   11   11
 -1.775342077253717   14   14   12   12
 -1.815013477692035   14   14   13   13
 -1.827392877407694   14   14   14   14
 -0.3829638155768439    1    1  0  0
 -0.3892965516393143    2    2  0  0
 -0.5156708386506207    3    3  0  0
 -0.5199787910730751    4    4  0  0
 -0.8194072045093453    5    5  0  0
 -0.8198855350508727    6    6  0  0
 -0.8209180807393071    7    7  0  0
 -0.8227356598977071    8    8  0  0
 -0.8230532216795418    9    9  0  0
 -0.8268351278846501   10   10  0  0
 -0.8579295155669002   11   11  0  0
 -0.862386936666483   12   12  0  0
 -0.9013589701840505   13   13  0  0
 -0.913696438703847   14   14  0  0
 -4751.12563632911  0  0  0  0
