 &FCI NORB=  14,NELEC=22,MS2=0,
  ORBSYM=1,1,1,1,1,1,1,1,1,1,1,1,1,1,
  ISYM=1,
 &END
 15.93005026503589    1    1    1    1
 0.1258806137710159    2    1    1    1
 0.07686840947698155    2    1    2    1
 15.51065847658293    2    2    1    1
 -0.1250795775596524    2    2    2    1
 15.911365559751    2    2    2    2
 12.34234507881153    3    3    3    3
 0.1208952190583735    4    3    3    3
 0.1386738747714885    4    3    4    3
 12.20135313740992    4    4    3    3
 0.003962516142491927    4    4    4    3
 12.20448170036622    4    4    4    4
 11.21690536259431    5    5    5    5
 -0.06334089727439275    6    5    5    5
 0.09154903711295909    6    5    6    5
 11.07922636746715    6    6    5    5
 0.09254589165493807    6    6    6    5
 11.24284504241446    6    6    6    6
 13.56522355323756    7    7    7    7
 0.03140620152448824    8    7    7    7
 0.01961615697295257    8    7    8    7
 13.36274544585619    8    8    7    7
 0.009143017488390807    8    8    8    7
 13.34898223046232    8    8    8    8
 12.01682623530083    9    9    9    9
 -0.004332783654709406   10    9    9    9
 0.02993313527286675   10    9   10    9
 11.99404327252332   10   10    9    9
 -0.006151329563679792   10   10   10    9
 12.08315213232447   10   10   10   10
 12.85778790774542   11   11   11   11
 -0.0104480716080964   12   11   11   11
 0.07813040466164121   12   11   12   11
 12.85107743711354   12   12   11   11
 0.02151937228003071   12   12   12   11
 13.00523387751108   12   12   12   12
 9.477237346127998   13   13   13   13
 0.01523936263953007   14   13   13   13
 0.04541765780428374   14   13   14   13
 9.291732826252778   14   14   13   13
 0.0007974035633235659   14   14   14   13
 9.287363280858886   14   14   14   14
 -63.61966677416562    1    1  0  0
 0.1339985767848181    2    1  0  0
 -63.98213976177139    2    2  0  0
 -49.98575782661915    3    3  0  0
 0.2170199494888995    4    3  0  0
 -49.39745823939238    4    4  0  0
 -46.26092338365849    5    5  0  0
 0.1899707477890307    6    5  0  0
 -45.66738624000519    6    6  0  0
 -53.65731738510477    7    7  0  0
 -0.06381769819939903    8    7  0  0
 -53.2575304486098    8    8  0  0
 -48.12591840343682    9    9  0  0
 -0.07365469076463016   10    9  0  0
 -48.1021346838153   10   10  0  0
 -26.03278408858713   11   11  0  0
 -0.7506345273176767   12   11  0  0
 -26.01537738886879   12   12  0  0
 -3.683477022359966   13   13  0  0
 -0.2905187368605382   14   13  0  0
 -2.595122758122913   14   14  0  0
 -275.1701482834461  0  0  0  0
