 &FCI NORB=  15,NELEC=22,MS2=0,
  ORBSYM=1,1,1,1,1,1,1,1,1,1,1,1,1,1,1,
  ISYM=1,
 &END
 8.970135683718501    1    1    1    1
 -0.0002801620715709974    2    1    1    1
 0.004126146254611861    2    1    2    1
 8.956644393673495    2    2    1    1
 -8.867696362191619e-05    2    2    2    1
 9.493688829302707    2    2    2    2
 11.47874648883774    3    3    3    3
 -0.005655250059235934    4    3    3    3
 0.03632236207542387    4    3    4    3
 11.40679000080372    4    4    3    3
 -0.004192649008518182    4    4    4    3
 11.50844129270835    4    4    4    4
 10.61699654084997    5    5    5    5
 0.01777353243849664    6    5    5    5
 0.03872313942105098    6    5    6    5
 10.56453151211191    6    6    5    5
 0.02054689292716095    6    6    6    5
 10.70854820119146    6    6    6    6
 15.40380065740797    7    7    7    7
 -0.003433245622678778    8    7    7    7
 0.0280200922997929    8    7    8    7
 15.30405633866431    8    8    7    7
 -0.002476180332198843    8    8    8    7
 15.33438548086287    8    8    8    8
 13.06824280484147    9    9    9    9
 0.007714009662270615   10    9    9    9
 0.03143461358381777   10    9   10    9
 12.9511728098158   10   10    9    9
 0.006120023281209953   10   10   10    9
 12.97716539100446   10   10   10   10
 11.26253091100612   11   11   11   11
 0.02116544248712066   12   11   11   11
 0.1042079886111716   12   11   12   11
 11.24685663613757   12   12   11   11
 -0.006266792104478697   12   12   12   11
 11.29025112692724   12   12   12   12
 14.14662303974624   13   13   13   13
 0.03896197519580018   14   13   13   13
 0.01279847762938356   14   13   14   13
 13.78484418173064   14   14   13   13
 0.00540919271790889   14   14   14   13
 13.80055511403251   14   14   14   14
 8.860797552587918   15   15   15   15
 -37.04101979255147    1    1  0  0
 -0.01460266570500094    2    1  0  0
 -41.26202466609252    2    2  0  0
 -48.03808616707033    3    3  0  0
 0.01530668225088389    4    3  0  0
 -48.20156005075647    4    4  0  0
 -45.05364871997261    5    5  0  0
 -0.06011550869062373    6    5  0  0
 -45.34839997772517    6    6  0  0
 -60.85613820443216    7    7  0  0
 -0.01514899060788471    8    7  0  0
 -61.04667935451983    8    8  0  0
 -52.45767931111521    9    9  0  0
 0.02526761288027888   10    9  0  0
 -52.74919588814578   10   10  0  0
 -25.55604490701811   11   11  0  0
 -0.009781423727405874   12   11  0  0
 -27.24092727235452   12   12  0  0
 -5.164175687559402   13   13  0  0
 -0.3249254132895393   14   13  0  0
 -0.2693627000890491   14   14  0  0
 -5.695226518562743   15   15  0  0
 -1747.734433463279  0  0  0  0
