 &FCI NORB=  14,NELEC=24,MS2=0,
  ORBSYM=1,1,1,1,1,1,1,1,1,1,1,1,1,1,
  ISYM=1,
 &END
 10.16473647958048    1    1    1    1
 -0.01026547981098999    2    1    1    1
 0.08168294181151078    2    1    2    1
 10.14661611634818    2    2    1    1
 0.00898757900313555    2    2    2    1
 10.14963836351995    2    2    2    2
 10.22093090499209    3    3    3    3
 -0.002646996915874685    4    3    3    3
 0.008794527399577376    4    3    4    3
 10.0073401299177    4    4    3    3
 0.004243510675474341    4    4    4    3
 10.40994658283684    4    4    4    4
 11.70774334110317    5    5    5    5
 -0.07034649868665088    6    5    5    5
 0.02891840386752951    6    5    6    5
 11.36482286877261    6    6    5    5
 0.03224098008111652    6    6    6    5
 11.54570527608531    6    6    6    6
 14.58680792425539    7    7    7    7
 -0.07956458960238917    8    7    7    7
 0.0499773610043769    8    7    8    7
 14.40092429290553    8    8    7    7
 -0.004479808689252938    8    8    8    7
 14.4182040187262    8    8    8    8
 12.8706416242697    9    9    9    9
 -0.07039170248879247   10    9    9    9
 0.03978301052510307   10    9   10    9
 12.66498546033584   10   10    9    9
 -0.004914096619017707   10   10   10    9
 12.68011888826627   10   10   10   10
 9.3873202983141   11   11   11   11
 0.02989867131478702   12   11   11   11
 0.1880751077344182   12   11   12   11
 9.368641317927798   12   12   11   11
 -0.04238323822683822   12   12   12   11
 9.393795896376654   12   12   12   12
 8.464989820850619   13   13   13   13
 -0.006691957583815889   14   13   13   13
 0.06016756494770468   14   13   14   13
 8.465050168700738   14   14   13   13
 0.008159504137565238   14   14   14   13
 8.475649660898075   14   14   14   14
 -42.62423270812555    1    1  0  0
 -0.0642206168676689    2    1  0  0
 -42.46688301397062    2    2  0  0
 -49.02437241225148    3    3  0  0
 0.02954500036104343    4    3  0  0
 -48.91850783248563    4    4  0  0
 -53.48307557940769    5    5  0  0
 -0.006353867586931719    6    5  0  0
 -53.39399280587559    6    6  0  0
 -62.96782065540403    7    7  0  0
 -0.0584577494649121    8    7  0  0
 -63.08831610458748    8    8  0  0
 -56.90937405385651    9    9  0  0
 -0.04184319683059746   10    9  0  0
 -56.98028677638573   10   10  0  0
 -45.39069355248037   11   11  0  0
 -0.0237591643385535   12   11  0  0
 -45.37775563463883   12   12  0  0
 -1.011619262151701   13   13  0  0
 0.03448665801644522   14   13  0  0
 -1.145964915703165   14   14  0  0
 -4751.083687553801  0  0  0  0
